   * xtb version 6.5.1 (b24c23e) compiled by 'conda@728c89f4b128' on 2022-07-12
          program call               : xtb C6H6.xyz --gfn2 --chrg 0 --uhf 1 --alpb ch2cl2 --opt 1

   ID    Z sym.   atoms
    1    6 C      1-6
    2    1 H      7-11

      * Solvation model:               ALPB
        Solvent                        ch2cl2
        Solvent mass                       8.4930E+01 g/mol
          :  Hamiltonian                  GFN2-xTB          :
 * total energy  :   -15.2735976 Eh     change       -0.3581135E-11 Eh
 * total energy  :   -15.2771912 Eh     change       -0.3593560E-02 Eh
 * total energy  :   -15.2776260 Eh     change       -0.4348327E-03 Eh
 * total energy  :   -15.2776495 Eh     change       -0.2344645E-04 Eh
 * total energy  :   -15.2776512 Eh     change       -0.1727308E-05 Eh
 * total energy  :   -15.2776517 Eh     change       -0.4362276E-06 Eh
   *** GEOMETRY OPTIMIZATION CONVERGED AFTER 6 ITERATIONS ***

 final structure:
================
11
 xtb: 6.5.1 (b24c23e)
C            0.42511486584648        2.78773812069515       -0.00108983108332
C           -0.92892679801320        0.44273258586869        0.00010267917836
C            0.45533186540216        0.43257789708054        0.00050021391657
C            1.15771467272578        1.63738905737080       -0.00004820178933
C           -0.93741988648536        2.84713499291310       -0.00157995454398
C           -1.62971546559856        1.63648812057292       -0.00091388211812
H           -1.46955623553692       -0.49359894495795        0.00051086676442
H            0.99900576440847       -0.50189948644285        0.00129346713231
H            2.23780153134769        1.64283600782984        0.00017312114135
H           -1.47274055882277        3.78524219068971       -0.00230316929178
H           -2.71082611527376        1.64024439838004       -0.00129830930648

          :  Hamiltonian                  GFN2-xTB          :
         :: total energy             -15.277651652330 Eh    ::
         :: gradient norm              0.000051048451 Eh/a0 ::
         :: HOMO-LUMO gap              2.521028782564 eV    ::
         :: SCC energy               -15.582137288533 Eh    ::
         :: -> dispersion             -0.007365871920 Eh    ::
         :: -> Gsolv                  -0.006480433757 Eh    ::
         :: repulsion energy           0.304481151374 Eh    ::

    * Orbital Energies and Occupations

         #    Occupation            Energy/Eh            Energy/eV
      -------------------------------------------------------------
         1        2.0000           -0.6452297             -17.5576
       ...           ...                  ...                  ...
         3        2.0000           -0.6112204             -16.6322
         4        2.0000           -0.5717609             -15.5584
         5        2.0000           -0.5658624             -15.3979
         6        2.0000           -0.5283451             -14.3770
         7        2.0000           -0.4933696             -13.4253
         8        2.0000           -0.4911802             -13.3657
         9        2.0000           -0.4813257             -13.0975
        10        2.0000           -0.4775624             -12.9951
        11        2.0000           -0.4545118             -12.3679
        12        2.0000           -0.4272424             -11.6259
        13        2.0000           -0.4061200             -11.0511
        14        2.0000           -0.4032112             -10.9719
        15        1.0000           -0.3214141              -8.7461 (HOMO)
        16                         -0.2287680              -6.2251 (LUMO)
        17                         -0.2159245              -5.8756
        18                         -0.0890590              -2.4234
        19                          0.1207539               3.2859
        20                          0.1413423               3.8461
        21                          0.1750281               4.7628
        22                          0.1863727               5.0715
        23                          0.2006590               5.4602
        24                          0.3776265              10.2757
        25                          0.4042721              11.0008
        26                          0.4224448              11.4953
       ...                                ...                  ...
        29                          0.6552762              17.8310
      -------------------------------------------------------------
                  HL-Gap            0.0926461 Eh            2.5210 eV

     #   Z          covCN         q      C6AA      α(0)
     1   6 C        2.019    -0.070    32.905     9.264
     2   6 C        2.918    -0.036    28.890     8.814
     3   6 C        2.930    -0.027    28.681     8.783
     4   6 C        2.915    -0.020    28.516     8.757
     5   6 C        2.915    -0.020    28.516     8.757
     6   6 C        2.930    -0.027    28.681     8.783
     7   1 H        0.926     0.038     2.480     2.463
     8   1 H        0.926     0.039     2.466     2.456
     9   1 H        0.926     0.043     2.413     2.429
    10   1 H        0.926     0.043     2.413     2.429
    11   1 H        0.926     0.039     2.466     2.456

Wiberg/Mayer (AO) data.
largest (>0.10) Wiberg bond orders for each atom

     #   Z sym  total        # sym  WBO       # sym  WBO       # sym  WBO
 ---------------------------------------------------------------------------
     1   6 C    3.103 --     5 C    1.471     4 C    1.471     2 C    0.108
     2   6 C    3.991 --     6 C    1.447     3 C    1.447     7 H    0.963
                             1 C    0.108
     3   6 C    3.935 --     2 C    1.447     4 C    1.383     8 H    0.963
                             5 C    0.118
     4   6 C    3.956 --     1 C    1.471     3 C    1.383     9 H    0.959
                             6 C    0.117
     5   6 C    3.956 --     1 C    1.471     6 C    1.383    10 H    0.959
                             3 C    0.118
     6   6 C    3.935 --     2 C    1.447     5 C    1.383    11 H    0.963
                             4 C    0.117
     7   1 H    0.990 --     2 C    0.963
     8   1 H    0.988 --     3 C    0.963
     9   1 H    0.985 --     4 C    0.959
    10   1 H    0.985 --     5 C    0.959
    11   1 H    0.988 --     6 C    0.963
 ---------------------------------------------------------------------------

molecular dipole:
                 x           y           z       tot (Debye)
 q only:       -0.109      -0.189       0.000
   full:       -0.195      -0.337       0.000       0.990

           -------------------------------------------------
          | TOTAL ENERGY              -15.277651652330 Eh   |
          | GRADIENT NORM               0.000051048451 Eh/α |
          | HOMO-LUMO GAP               2.521028782564 eV   |
           -------------------------------------------------

 * finished run on 2022/11/14 at 22:12:07.450
