   * xtb version 6.5.1 (b24c23e) compiled by 'conda@728c89f4b128' on 2022-07-12
          program call               : xtb CCH3CH3CH3.xyz --gfn2 --chrg 0 --uhf 1 --alpb ch2cl2 --opt 1

   ID    Z sym.   atoms
    1    6 C      1, 2, 6, 10
    2    1 H      3-5, 7-9, 11-13

      * Solvation model:               ALPB
        Solvent                        ch2cl2
        Solvent mass                       8.4930E+01 g/mol
          :  Hamiltonian                  GFN2-xTB          :
 * total energy  :   -13.0684155 Eh     change       -0.2674732E-09 Eh
 * total energy  :   -13.0799164 Eh     change       -0.1150082E-01 Eh
 * total energy  :   -13.0838220 Eh     change       -0.3905642E-02 Eh
 * total energy  :   -13.0851136 Eh     change       -0.1291631E-02 Eh
 * total energy  :   -13.0856674 Eh     change       -0.5537446E-03 Eh
 * total energy  :   -13.0860888 Eh     change       -0.4214238E-03 Eh
 * total energy  :   -13.0861328 Eh     change       -0.4394220E-04 Eh
 * total energy  :   -13.0861351 Eh     change       -0.2363496E-05 Eh
 * total energy  :   -13.0861361 Eh     change       -0.9711140E-06 Eh
   *** GEOMETRY OPTIMIZATION CONVERGED AFTER 9 ITERATIONS ***

 final structure:
================
13
 xtb: 6.5.1 (b24c23e)
C            1.95421828783205       -2.03326696478026       -0.00074877191128
C            2.08708097776457       -3.51308493905445        0.00052789822171
H            1.62682820757619       -3.94632088261701        0.88830688334697
H            1.62326708580010       -3.94856434104460       -0.88434737940315
H            3.14082569377028       -3.82477607865476       -0.00130345801092
C            2.08564323952557       -1.29216793213045       -1.28190095243495
H            1.65531504494361       -1.85827165722481       -2.10746879728130
H            1.59143520507235       -0.32223231201359       -1.22502900050099
H            3.13834667456098       -1.10210339024706       -1.53329281369785
C            2.08254493420168       -1.29227430354684        1.28089544632863
H            1.62383778610505       -0.30628080917291        1.21018946406223
H            1.61443507693183       -1.84036651819743        2.09836922032548
H            3.13539023591571       -1.13966941131586        1.55627096095538

          :  Hamiltonian                  GFN2-xTB          :
         :: total energy             -13.086136088018 Eh    ::
         :: gradient norm              0.000448344262 Eh/a0 ::
         :: HOMO-LUMO gap             10.288097742261 eV    ::
         :: SCC energy               -13.289274607945 Eh    ::
         :: -> dispersion             -0.005787672426 Eh    ::
         :: -> Gsolv                  -0.005628126247 Eh    ::
         :: repulsion energy           0.203130596061 Eh    ::

    * Orbital Energies and Occupations

         #    Occupation            Energy/Eh            Energy/eV
      -------------------------------------------------------------
         1        2.0000           -0.6118703             -16.6498
         2        2.0000           -0.5838793             -15.8882
         3        2.0000           -0.5838105             -15.8863
         4        2.0000           -0.5308865             -14.4462
         5        2.0000           -0.4926338             -13.4052
         6        2.0000           -0.4905747             -13.3492
         7        2.0000           -0.4904392             -13.3455
         8        2.0000           -0.4591390             -12.4938
         9        2.0000           -0.4589273             -12.4880
        10        2.0000           -0.4472355             -12.1699
        11        2.0000           -0.4321227             -11.7587
        12        2.0000           -0.4321077             -11.7582
        13        1.0000           -0.2756545              -7.5009 (HOMO)
        14                          0.1024262               2.7872 (LUMO)
        15                          0.1453919               3.9563
        16                          0.1458173               3.9679
        17                          0.1777077               4.8357
        18                          0.1900113               5.1705
        19                          0.1901213               5.1735
        20                          0.2160431               5.8788
        21                          0.2161096               5.8806
        22                          0.2340905               6.3699
        23                          0.2508354               6.8256
        24                          0.3471986               9.4478
        25                          0.3480581               9.4711
      -------------------------------------------------------------
                  HL-Gap            0.3780806 Eh           10.2881 eV

     #   Z          covCN         q      C6AA      α(0)
     1   6 C        2.933    -0.039    28.967     8.827
     2   6 C        3.753    -0.101    22.496     6.764
     3   1 H        0.925     0.037     2.489     2.467
     4   1 H        0.925     0.037     2.489     2.467
     5   1 H        0.923     0.041     2.442     2.444
     6   6 C        3.753    -0.101    22.497     6.764
     7   1 H        0.925     0.037     2.492     2.468
     8   1 H        0.925     0.037     2.487     2.466
     9   1 H        0.923     0.040     2.443     2.444
    10   6 C        3.753    -0.102    22.498     6.764
    11   1 H        0.925     0.037     2.489     2.467
    12   1 H        0.925     0.037     2.489     2.467
    13   1 H        0.923     0.040     2.445     2.445

Wiberg/Mayer (AO) data.
largest (>0.10) Wiberg bond orders for each atom

     #   Z sym  total        # sym  WBO       # sym  WBO       # sym  WBO
 ---------------------------------------------------------------------------
     1   6 C    3.178 --     2 C    1.057     6 C    1.057    10 C    1.057
     2   6 C    3.990 --     1 C    1.057     3 H    0.978     4 H    0.978
                             5 H    0.947
     3   1 H    0.990 --     2 C    0.978
     4   1 H    0.990 --     2 C    0.978
     5   1 H    0.951 --     2 C    0.947
     6   6 C    3.990 --     1 C    1.057     7 H    0.979     8 H    0.977
                             9 H    0.947
     7   1 H    0.991 --     6 C    0.979
     8   1 H    0.989 --     6 C    0.977
     9   1 H    0.951 --     6 C    0.947
    10   6 C    3.991 --     1 C    1.057    11 H    0.978    12 H    0.978
                            13 H    0.947
    11   1 H    0.990 --    10 C    0.978
    12   1 H    0.990 --    10 C    0.978
    13   1 H    0.951 --    10 C    0.947
 ---------------------------------------------------------------------------

molecular dipole:
                 x           y           z       tot (Debye)
 q only:        0.057       0.000       0.000
   full:        0.148       0.001       0.001       0.377

           -------------------------------------------------
          | TOTAL ENERGY              -13.086136088018 Eh   |
          | GRADIENT NORM               0.000448344262 Eh/α |
          | HOMO-LUMO GAP              10.288097742261 eV   |
           -------------------------------------------------

 * finished run on 2022/11/14 at 22:12:14.854
