   * xtb version 6.5.1 (579679a) compiled by 'ehlert@majestix' on 2022-07-11
          program call               : xtb [Ir+3]_1202033-19-9_SP0.xyz --gfn2 --chrg 0 --uhf 1 --alpb ch2cl2 --opt 1

   ID    Z sym.   atoms
    1    6 C      1, 3-8, 10-13, 16-21, 23-27, 29, 30
    2    8 O      2, 22, 28, 31
    3   15 P      9, 15
    4   77 Ir     14
    5    1 H      32-63

      * Solvation model:               ALPB
        Solvent                        ch2cl2
        Solvent mass                       8.4930E+01 g/mol
          :  Hamiltonian                  GFN2-xTB          :
 * total energy  :   -92.1401462 Eh     change       -0.4703068E-08 Eh
 * total energy  :   -92.5167305 Eh     change       -0.3765843E+00 Eh
 * total energy  :   -92.6524899 Eh     change       -0.1357594E+00 Eh
 * total energy  :   -92.7476761 Eh     change       -0.9518616E-01 Eh
 * total energy  :   -92.8107026 Eh     change       -0.6302657E-01 Eh
 * total energy  :   -92.8434533 Eh     change       -0.3275067E-01 Eh
 * total energy  :   -92.8661690 Eh     change       -0.2271565E-01 Eh
 * total energy  :   -92.8819539 Eh     change       -0.1578496E-01 Eh
 * total energy  :   -92.8918278 Eh     change       -0.9873899E-02 Eh
 * total energy  :   -92.8984024 Eh     change       -0.6574624E-02 Eh
 * total energy  :   -92.9221155 Eh     change       -0.2035982E-05 Eh
 * total energy  :   -92.9221172 Eh     change       -0.1676943E-05 Eh
 * total energy  :   -92.9221186 Eh     change       -0.1451626E-05 Eh
 * total energy  :   -92.9221199 Eh     change       -0.1285876E-05 Eh
 * total energy  :   -92.9221211 Eh     change       -0.1172159E-05 Eh
 * total energy  :   -92.9221223 Eh     change       -0.1176957E-05 Eh
 * total energy  :   -92.9221234 Eh     change       -0.1191846E-05 Eh
 * total energy  :   -92.9221245 Eh     change       -0.1023997E-05 Eh
 * total energy  :   -92.9221245 Eh     change       -0.1106736E-07 Eh
   *** GEOMETRY OPTIMIZATION CONVERGED AFTER 122 ITERATIONS ***

 final structure:
================
63
 xtb: 6.5.1 (579679a)
C            1.41296439352093        3.87609031905666       -2.74623591720163
O            1.08776394256345        3.23439035348808       -1.53234994551874
C            2.05191899425937        3.10727551162830       -0.58261404882968
C            3.33106024578027        3.64716262443125       -0.63982359217008
C            4.21775995995086        3.42618195097024        0.40580139029747
C            3.87302547749494        2.65843212462148        1.50327683949127
C            2.59664320861485        2.11224992867883        1.55072755746181
C            1.67442035219704        2.37094586856312        0.54051514632185
P            0.13772204844925        1.43879025619137        0.75095274799653
C           -1.08576353155302        2.72141536334376        1.43526843239977
C           -0.43920103392590        3.75731996803733        2.34951154181018
C           -1.68334711428712        3.40561667550474        0.20661555456443
C           -2.18567135331512        1.94683140044732        2.16200720562168
Ir          -0.42018892238548       -0.24773696746888       -0.56529544912038
P            0.81047327487738       -1.65141145449152        0.80010837955786
C            1.73022685731946       -3.32220257561174        1.11582890891250
C            1.27932736867718       -4.22418160236730       -0.03312147783250
C            1.43792814450654       -3.99624750101828        2.45175948639016
C            3.22068004349468       -3.01430750398469        0.97819683845998
C           -0.85487826847165       -2.08771601719709        1.38478533154342
C           -1.95547896610947       -2.46106478264513        0.61262370816926
O           -1.75174252914420       -2.37915782242258       -0.75180867362119
C           -2.75542474892339       -2.87679477062581       -1.60760609238602
C           -3.14261632484650       -2.79430899633294        1.24052481642476
C           -3.24132289369924       -2.66809925322313        2.62471450317901
C           -2.20156523840915       -2.16096654630222        3.38617354438390
C           -1.00956846117213       -1.84852430232830        2.74961950410322
O            0.05822727780045       -1.29995058285630        3.38712337919643
C            1.02466681016965       -0.78770544897553        2.47179698414315
C            0.90680413846395        0.75164478018882        2.37956415425876
O            2.19810841272670        1.31872600853270        2.57167196779488
H            0.51812183444952        3.80704640711193       -3.36288386644134
H            1.66292025773218        4.92997891787920       -2.58713655024180
H            2.24387733517610        3.37519374604021       -3.25157734287735
H            3.65156306643408        4.23417418755643       -1.48561101389370
H            5.20713591286364        3.85568753608935        0.35163188839571
H            4.57091483589199        2.47098183246723        2.30343270383586
H            0.04411151549952        3.29241438907931        3.20632634167094
H           -1.19694619808135        4.44599320253132        2.72234809175010
H            0.30997038149074        4.33105198220913        1.80688153878963
H           -2.46700601596678        4.10463660081219        0.49547443560958
H           -2.10888442035746        2.65713873235561       -0.46143689054319
H           -0.91352460240655        3.94445176208477       -0.33906968001776
H           -1.82966705381093        1.52522903502244        3.09970848086879
H           -2.53461782561946        1.12464499353814        1.53516935053613
H           -3.02975920667096        2.59865292391779        2.38241596493924
H            1.84136215081171       -5.15755087999201       -0.03850435549821
H            0.22068570672017       -4.46233608549054        0.06370630153924
H            1.43380779528719       -3.72296423036980       -0.98911658187889
H            1.74157964735177       -3.37260615437887        3.28937072613699
H            0.37610377269965       -4.21516337455721        2.55519424389756
H            1.98595257023352       -4.93708127697105        2.51492243640878
H            3.80731223290505       -3.93229146868193        0.99574888629152
H            3.41243800571848       -2.49759289830609        0.03763428509449
H            3.56264892478849       -2.37441730764698        1.79020607975210
H           -2.97403855265296       -3.92561809506638       -1.38501677122196
H           -2.36108332679866       -2.80014248477921       -2.62070857171464
H           -3.67697604431074       -2.28954032950509       -1.53245778685106
H           -4.00419008765874       -3.12230918625382        0.68047254878827
H           -4.17120713949211       -2.93047883858415        3.10608536916807
H           -2.30919034014030       -2.00340063913155        4.44751421017672
H            2.00988845319120       -0.99753538843195        2.90572761975149
H            0.29444485010756        1.05575538363683        3.24003518197694

          :  Hamiltonian                  GFN2-xTB          :
         :: total energy             -92.922124480461 Eh    ::
         :: gradient norm              0.000055951840 Eh/a0 ::
         :: HOMO-LUMO gap              0.826156821186 eV    ::
         :: SCC energy               -94.108340445494 Eh    ::
         :: -> dispersion             -0.092138286478 Eh    ::
         :: -> Gsolv                  -0.038723706286 Eh    ::
         :: repulsion energy           1.183181899573 Eh    ::

    * Orbital Energies and Occupations

         #    Occupation            Energy/Eh            Energy/eV
      -------------------------------------------------------------
         1        2.0000           -0.7214068             -19.6305
       ...           ...                  ...                  ...
        74        2.0000           -0.4085261             -11.1166
        75        2.0000           -0.4026352             -10.9563
        76        2.0000           -0.4004493             -10.8968
        77        2.0000           -0.3915635             -10.6550
        78        2.0000           -0.3794449             -10.3252
        79        2.0000           -0.3725212             -10.1368
        80        2.0000           -0.3660122              -9.9597
        81        2.0000           -0.3644336              -9.9167
        82        2.0000           -0.2903004              -7.8995
        83        2.0000           -0.2844846              -7.7412
        84        2.0000           -0.2767245              -7.5301
        85        1.9977           -0.2723027              -7.4097
        86        1.0023           -0.2607599              -7.0956 (HOMO)
        87        0.0000           -0.2303992              -6.2695 (LUMO)
        88                         -0.2238176              -6.0904
        89                         -0.2083954              -5.6707
        90                         -0.2028711              -5.5204
        91                         -0.1749947              -4.7618
        92                         -0.1670770              -4.5464
        93                         -0.1446357              -3.9357
        94                         -0.1176041              -3.2002
        95                         -0.0886250              -2.4116
        96                         -0.0687165              -1.8699
        97                         -0.0568581              -1.5472
       ...                                ...                  ...
       171                          2.2962778              62.4849
      -------------------------------------------------------------
                  HL-Gap            0.0303607 Eh            0.8262 eV

     #   Z          covCN         q      C6AA      α(0)
     1   6 C        3.643     0.030    20.416     6.496
     2   8 O        1.706    -0.259    18.293     5.775
     3   6 C        2.903     0.139    24.969     8.193
     4   6 C        2.915    -0.084    30.101     8.997
     5   6 C        2.924    -0.035    28.877     8.812
     6   6 C        2.913    -0.073    29.819     8.954
     7   6 C        3.067     0.146    24.771     8.161
     8   6 C        2.922    -0.055    29.355     8.885
     9  15 P        4.436     0.022   159.242    22.668
    10   6 C        3.847     0.019    20.221     6.396
    11   6 C        3.792    -0.108    22.570     6.766
    12   6 C        3.873    -0.116    22.672     6.770
    13   6 C        3.848    -0.112    22.595     6.761
    14  77 Ir       2.258    -0.080   345.192    35.604
    15  15 P        4.415    -0.019   161.055    22.797
    16   6 C        3.843     0.012    20.348     6.417
    17   6 C        3.864    -0.101    22.374     6.726
    18   6 C        3.776    -0.102    22.478     6.755
    19   6 C        3.842    -0.109    22.547     6.755
    20   6 C        3.069    -0.041    28.942     8.821
    21   6 C        2.916     0.133    25.093     8.214
    22   8 O        1.850    -0.217    17.582     5.663
    23   6 C        3.640     0.039    20.281     6.476
    24   6 C        2.915    -0.085    30.124     9.000
    25   6 C        2.925    -0.044    29.082     8.844
    26   6 C        2.912    -0.072    29.807     8.952
    27   6 C        3.070     0.139    24.895     8.181
    28   8 O        1.728    -0.284    18.704     5.839
    29   6 C        3.736     0.084    19.265     6.264
    30   6 C        3.745     0.073    19.423     6.287
    31   8 O        1.721    -0.278    18.615     5.825
    32   1 H        0.925     0.070     2.089     2.260
    33   1 H        0.924     0.048     2.346     2.395
    34   1 H        0.924     0.050     2.325     2.385
    35   1 H        0.926     0.044     2.395     2.420
    36   1 H        0.926     0.044     2.396     2.421
    37   1 H        0.926     0.045     2.377     2.411
    38   1 H        0.925     0.040     2.452     2.449
    39   1 H        0.925     0.047     2.363     2.404
    40   1 H        0.925     0.043     2.408     2.427
    41   1 H        0.925     0.044     2.401     2.423
    42   1 H        0.925     0.050     2.320     2.382
    43   1 H        0.925     0.056     2.251     2.346
    44   1 H        0.925     0.037     2.485     2.465
    45   1 H        0.924     0.047     2.351     2.398
    46   1 H        0.925     0.048     2.341     2.393
    47   1 H        0.925     0.037     2.485     2.465
    48   1 H        0.925     0.035     2.519     2.482
    49   1 H        0.924     0.042     2.418     2.432
    50   1 H        0.925     0.039     2.463     2.454
    51   1 H        0.925     0.033     2.543     2.494
    52   1 H        0.924     0.039     2.467     2.456
    53   1 H        0.925     0.042     2.419     2.432
    54   1 H        0.925     0.045     2.388     2.417
    55   1 H        0.925     0.037     2.487     2.466
    56   1 H        0.924     0.043     2.406     2.425
    57   1 H        0.925     0.064     2.150     2.293
    58   1 H        0.924     0.045     2.388     2.417
    59   1 H        0.926     0.036     2.504     2.474
    60   1 H        0.926     0.037     2.483     2.464
    61   1 H        0.926     0.041     2.430     2.438
    62   1 H        0.924     0.055     2.263     2.352
    63   1 H        0.924     0.054     2.272     2.357

Wiberg/Mayer (AO) data.
largest (>0.10) Wiberg bond orders for each atom

     #   Z sym  total        # sym  WBO       # sym  WBO       # sym  WBO
 ---------------------------------------------------------------------------
     1   6 C    3.939 --    32 H    0.979    34 H    0.977    33 H    0.976
                             2 O    0.976
     2   8 O    2.262 --     3 C    1.065     1 C    0.976
     3   6 C    3.936 --     4 C    1.377     8 C    1.315     2 O    1.065
     4   6 C    3.977 --     5 C    1.420     3 C    1.377    35 H    0.965
     5   6 C    3.968 --     6 C    1.449     4 C    1.420    36 H    0.971
     6   6 C    3.977 --     5 C    1.449     7 C    1.353    37 H    0.967
     7   6 C    3.933 --     6 C    1.353     8 C    1.322    31 O    1.070
     8   6 C    3.969 --     7 C    1.322     3 C    1.315     9 P    0.994
     9  15 P    4.468 --    14 Ir   1.292     8 C    0.994    30 C    0.891
                            10 C    0.889
    10   6 C    3.977 --    11 C    0.995    13 C    0.993    12 C    0.992
                             9 P    0.889
    11   6 C    3.994 --    10 C    0.995    40 H    0.979    39 H    0.979
                            38 H    0.977
    12   6 C    3.992 --    10 C    0.992    41 H    0.980    43 H    0.976
                            42 H    0.971
    13   6 C    3.994 --    10 C    0.993    46 H    0.980    44 H    0.977
                            45 H    0.968
    14  77 Ir   2.945 --     9 P    1.292    15 P    0.876    22 O    0.182
                            20 C    0.101
    15  15 P    4.043 --    20 C    0.997    29 C    0.930    14 Ir   0.876
                            16 C    0.856
    16   6 C    3.943 --    18 C    0.997    19 C    0.996    17 C    0.995
                            15 P    0.856
    17   6 C    3.996 --    16 C    0.995    47 H    0.980    48 H    0.980
                            49 H    0.975
    18   6 C    3.992 --    16 C    0.997    50 H    0.981    51 H    0.980
                            52 H    0.978
    19   6 C    3.995 --    16 C    0.996    53 H    0.980    55 H    0.978
                            54 H    0.976
    20   6 C    3.974 --    21 C    1.309    27 C    1.303    15 P    0.997
                            14 Ir   0.101
    21   6 C    3.928 --    24 C    1.405    20 C    1.309    22 O    1.013
    22   8 O    2.355 --    21 C    1.013    23 C    0.975    14 Ir   0.182
    23   6 C    3.941 --    57 H    0.979    56 H    0.978    58 H    0.977
                            22 O    0.975
    24   6 C    3.979 --    21 C    1.405    25 C    1.397    59 H    0.966
    25   6 C    3.985 --    26 C    1.444    24 C    1.397    60 H    0.971
    26   6 C    3.983 --    25 C    1.444    27 C    1.365    61 H    0.967
    27   6 C    3.932 --    26 C    1.365    20 C    1.303    28 O    1.059
    28   8 O    2.230 --    27 C    1.059    29 C    0.954
    29   6 C    3.921 --    30 C    0.961    28 O    0.954    62 H    0.941
                            15 P    0.930
    30   6 C    3.919 --    29 C    0.961    31 O    0.956    63 H    0.934
                             9 P    0.891
    31   8 O    2.242 --     7 C    1.070    30 C    0.956
    32   1 H    0.995 --     1 C    0.979
    33   1 H    0.997 --     1 C    0.976
    34   1 H    0.997 --     1 C    0.977
    35   1 H    0.997 --     4 C    0.965
    36   1 H    0.997 --     5 C    0.971
    37   1 H    0.997 --     6 C    0.967
    38   1 H    0.998 --    11 C    0.977
    39   1 H    0.995 --    11 C    0.979
    40   1 H    0.998 --    11 C    0.979
    41   1 H    0.997 --    12 C    0.980
    42   1 H    0.997 --    12 C    0.971
    43   1 H    0.997 --    12 C    0.976
    44   1 H    0.999 --    13 C    0.977
    45   1 H    0.998 --    13 C    0.968
    46   1 H    0.997 --    13 C    0.980
    47   1 H    0.997 --    17 C    0.980
    48   1 H    0.999 --    17 C    0.980
    49   1 H    0.998 --    17 C    0.975
    50   1 H    0.998 --    18 C    0.981
    51   1 H    0.999 --    18 C    0.980
    52   1 H    0.994 --    18 C    0.978
    53   1 H    0.996 --    19 C    0.980
    54   1 H    0.998 --    19 C    0.976
    55   1 H    0.998 --    19 C    0.978
    56   1 H    0.998 --    23 C    0.978
    57   1 H    0.995 --    23 C    0.979
    58   1 H    0.998 --    23 C    0.977
    59   1 H    0.998 --    24 C    0.966
    60   1 H    0.998 --    25 C    0.971
    61   1 H    0.998 --    26 C    0.967
    62   1 H    0.996 --    29 C    0.941
    63   1 H    0.996 --    30 C    0.934
 ---------------------------------------------------------------------------

molecular dipole:
                 x           y           z       tot (Debye)
 q only:       -0.541       0.480      -1.480
   full:       -1.192      -0.159      -1.872       5.655

           -------------------------------------------------
          | TOTAL ENERGY              -92.922124480461 Eh   |
          | GRADIENT NORM               0.000055951840 Eh/α |
          | HOMO-LUMO GAP               0.826156821186 eV   |
           -------------------------------------------------

 * finished run on 2022/10/30 at 17:45:17.665
