   * xtb version 6.5.1 (b24c23e) compiled by 'conda@728c89f4b128' on 2022-07-12
          program call               : xtb 3_5_dimethyl_phenyl.xyz --gfn2 --chrg 0 --uhf 1 --alpb ch2cl2 --opt 1

   ID    Z sym.   atoms
    1    6 C      1-6, 10, 14
    2    1 H      7-9, 11-13, 15-17

      * Solvation model:               ALPB
        Solvent                        ch2cl2
        Solvent mass                       8.4930E+01 g/mol
          :  Hamiltonian                  GFN2-xTB          :
 * total energy  :   -21.6165194 Eh     change       -0.1262990E-10 Eh
 * total energy  :   -21.6205572 Eh     change       -0.4037779E-02 Eh
 * total energy  :   -21.6222783 Eh     change       -0.1721089E-02 Eh
 * total energy  :   -21.6228257 Eh     change       -0.5474406E-03 Eh
 * total energy  :   -21.6230285 Eh     change       -0.2027559E-03 Eh
 * total energy  :   -21.6230437 Eh     change       -0.1526682E-04 Eh
 * total energy  :   -21.6230463 Eh     change       -0.2597395E-05 Eh
 * total energy  :   -21.6230468 Eh     change       -0.5232055E-06 Eh
   *** GEOMETRY OPTIMIZATION CONVERGED AFTER 8 ITERATIONS ***

 final structure:
================
17
 xtb: 6.5.1 (b24c23e)
C            1.11826538766414       -0.70123954638918        1.33857452701962
C            1.16701532908488        1.66053475524130        1.33966673006782
C           -0.24166203865697       -0.75971105400816        1.34976778506451
C            1.85669887571187        0.44463965103754        1.33392542109395
C           -0.22237030271767        1.63555437652756        1.35020837310220
C           -0.94467519357483        0.45141321622950        1.35590065468217
H           -0.77681509400299       -1.69820360712155        1.35372004818391
H            2.93694147794730        0.42973915177354        1.32733826692139
H           -0.75825585849515        2.57552758629202        1.35482832509437
C           -2.44440428567903        0.45260941692370        1.34204234703438
H           -2.83371286383563        1.33697226544401        1.84231664979031
H           -2.80589887895736        0.45770492062603        0.31252423321974
H           -2.83889927582836       -0.43388770238202        1.83391689640127
C            1.90867614942618        2.96432337358515        1.33910137917611
H            1.61249716948115        3.56747545137361        0.48108291401501
H            1.67726546145269        3.52951567975984        2.24206717431111
H            2.98318884097976        2.80389784508710        1.29689886482215

          :  Hamiltonian                  GFN2-xTB          :
         :: total energy             -21.623046846732 Eh    ::
         :: gradient norm              0.000087970100 Eh/a0 ::
         :: HOMO-LUMO gap              2.635709761516 eV    ::
         :: SCC energy               -22.023845129219 Eh    ::
         :: -> dispersion             -0.012496123796 Eh    ::
         :: -> Gsolv                  -0.009931657311 Eh    ::
         :: repulsion energy           0.400774295485 Eh    ::

    * Orbital Energies and Occupations

         #    Occupation            Energy/Eh            Energy/eV
      -------------------------------------------------------------
         1        2.0000           -0.6409817             -17.4420
       ...           ...                  ...                  ...
         9        2.0000           -0.5033665             -13.6973
        10        2.0000           -0.4968557             -13.5201
        11        2.0000           -0.4853793             -13.2078
        12        2.0000           -0.4841924             -13.1755
        13        2.0000           -0.4690972             -12.7648
        14        2.0000           -0.4676609             -12.7257
        15        2.0000           -0.4493384             -12.2271
        16        2.0000           -0.4486061             -12.2072
        17        2.0000           -0.4455502             -12.1240
        18        2.0000           -0.4232550             -11.5174
        19        2.0000           -0.3903468             -10.6219
        20        2.0000           -0.3862371             -10.5100
        21        1.0000           -0.3141150              -8.5475 (HOMO)
        22                         -0.2172544              -5.9118 (LUMO)
        23                         -0.2068066              -5.6275
        24                         -0.0829556              -2.2573
        25                          0.1008025               2.7430
        26                          0.1223070               3.3281
        27                          0.1476812               4.0186
        28                          0.1714547               4.6655
        29                          0.1847542               5.0274
        30                          0.1966320               5.3506
        31                          0.2004670               5.4550
        32                          0.2042691               5.5584
       ...                                ...                  ...
        41                          0.6656681              18.1138
      -------------------------------------------------------------
                  HL-Gap            0.0968606 Eh            2.6357 eV

     #   Z          covCN         q      C6AA      α(0)
     1   6 C        2.014    -0.079    33.179     9.303
     2   6 C        2.975     0.017    27.626     8.622
     3   6 C        2.920    -0.037    28.921     8.819
     4   6 C        2.919    -0.037    28.911     8.817
     5   6 C        2.928    -0.058    29.438     8.898
     6   6 C        2.974     0.017    27.624     8.621
     7   1 H        0.926     0.037     2.493     2.469
     8   1 H        0.926     0.036     2.502     2.474
     9   1 H        0.925     0.035     2.521     2.483
    10   6 C        3.757    -0.107    22.601     6.778
    11   1 H        0.925     0.046     2.369     2.407
    12   1 H        0.924     0.050     2.322     2.383
    13   1 H        0.925     0.046     2.372     2.408
    14   6 C        3.757    -0.107    22.601     6.778
    15   1 H        0.925     0.049     2.338     2.391
    16   1 H        0.925     0.049     2.335     2.390
    17   1 H        0.925     0.044     2.394     2.419

Wiberg/Mayer (AO) data.
largest (>0.10) Wiberg bond orders for each atom

     #   Z sym  total        # sym  WBO       # sym  WBO       # sym  WBO
 ---------------------------------------------------------------------------
     1   6 C    3.107 --     3 C    1.480     4 C    1.467     5 C    0.104
     2   6 C    3.933 --     5 C    1.416     4 C    1.358    14 C    1.019
                             3 C    0.111
     3   6 C    3.954 --     1 C    1.480     6 C    1.345     7 H    0.957
                             2 C    0.111
     4   6 C    3.954 --     1 C    1.467     2 C    1.358     8 H    0.957
                             6 C    0.110
     5   6 C    3.988 --     6 C    1.429     2 C    1.416     9 H    0.962
                             1 C    0.104
     6   6 C    3.932 --     5 C    1.429     3 C    1.345    10 C    1.019
                             4 C    0.110
     7   1 H    0.985 --     3 C    0.957
     8   1 H    0.985 --     4 C    0.957
     9   1 H    0.990 --     5 C    0.962
    10   6 C    3.985 --     6 C    1.019    13 H    0.982    11 H    0.979
                            12 H    0.967
    11   1 H    0.995 --    10 C    0.979
    12   1 H    0.997 --    10 C    0.967
    13   1 H    0.997 --    10 C    0.982
    14   6 C    3.985 --     2 C    1.019    17 H    0.985    15 H    0.972
                            16 H    0.971
    15   1 H    0.996 --    14 C    0.972
    16   1 H    0.996 --    14 C    0.971
    17   1 H    0.997 --    14 C    0.985
 ---------------------------------------------------------------------------

molecular dipole:
                 x           y           z       tot (Debye)
 q only:       -0.248       0.414      -0.009
   full:       -0.337       0.562      -0.017       1.665

           -------------------------------------------------
          | TOTAL ENERGY              -21.623046846732 Eh   |
          | GRADIENT NORM               0.000087970100 Eh/α |
          | HOMO-LUMO GAP               2.635709761516 eV   |
           -------------------------------------------------

 * finished run on 2022/11/14 at 22:11:23.731
