   * xtb version 6.5.1 (b24c23e) compiled by 'conda@728c89f4b128' on 2022-07-12
          program call               : xtb furanyl.xyz --gfn2 --chrg 0 --uhf 1 --alpb ch2cl2 --opt 1

   ID    Z sym.   atoms
    1    6 C      1-4
    2    8 O      5
    3    1 H      6-8

      * Solvation model:               ALPB
        Solvent                        ch2cl2
        Solvent mass                       8.4930E+01 g/mol
          :  Hamiltonian                  GFN2-xTB          :
 * total energy  :   -14.0221364 Eh     change       -0.9425349E-11 Eh
 * total energy  :   -14.0289017 Eh     change       -0.6765347E-02 Eh
 * total energy  :   -14.0299601 Eh     change       -0.1058335E-02 Eh
 * total energy  :   -14.0300311 Eh     change       -0.7104530E-04 Eh
 * total energy  :   -14.0300448 Eh     change       -0.1367534E-04 Eh
 * total energy  :   -14.0300457 Eh     change       -0.8923672E-06 Eh
   *** GEOMETRY OPTIMIZATION CONVERGED AFTER 6 ITERATIONS ***

 final structure:
================
8
 xtb: 6.5.1 (b24c23e)
C            0.45159476258117        1.96044168723190       -0.58493255662120
C           -0.18235477898092       -0.08254646504976       -0.58500441791399
C            1.17884240615918       -0.09975579362574       -0.58475035067394
C            1.60897137843962        1.26358041806318       -0.58497311368183
O           -0.62794301579870        1.19722150188323       -0.58465647739617
H           -0.91934982595974       -0.86050873609182       -0.58498531761256
H            1.82356056143002       -0.95541950853777       -0.58448008199642
H            2.61083871212937        1.63500753612678       -0.58486140410389

          :  Hamiltonian                  GFN2-xTB          :
         :: total energy             -14.030045666586 Eh    ::
         :: gradient norm              0.000344846290 Eh/a0 ::
         :: HOMO-LUMO gap              4.187241096536 eV    ::
         :: SCC energy               -14.224454112585 Eh    ::
         :: -> dispersion             -0.004194801817 Eh    ::
         :: -> Gsolv                  -0.005243282903 Eh    ::
         :: repulsion energy           0.194407956647 Eh    ::

    * Orbital Energies and Occupations

         #    Occupation            Energy/Eh            Energy/eV
      -------------------------------------------------------------
         1        2.0000           -0.7460625             -20.3014
         2        2.0000           -0.6652140             -18.1014
         3        2.0000           -0.6620767             -18.0160
         4        2.0000           -0.5944281             -16.1752
         5        2.0000           -0.5800317             -15.7835
         6        2.0000           -0.5718969             -15.5621
         7        2.0000           -0.5490546             -14.9405
         8        2.0000           -0.4889061             -13.3038
         9        2.0000           -0.4850216             -13.1981
        10        2.0000           -0.4741385             -12.9020
        11        2.0000           -0.4327315             -11.7752
        12        2.0000           -0.3979135             -10.8278
        13        1.0000           -0.3681878             -10.0189 (HOMO)
        14                         -0.2143095              -5.8317 (LUMO)
        15                         -0.1677264              -4.5641
        16                          0.0990751               2.6960
        17                          0.1225219               3.3340
        18                          0.1601428               4.3577
        19                          0.2145793               5.8390
        20                          0.2747758               7.4770
        21                          0.4260526              11.5935
        22                          0.4740760              12.9003
        23                          0.6789835              18.4761
      -------------------------------------------------------------
                  HL-Gap            0.1538783 Eh            4.1872 eV

     #   Z          covCN         q      C6AA      α(0)
     1   6 C        2.221     0.049    29.092     8.732
     2   6 C        3.085     0.062    26.520     8.442
     3   6 C        3.058    -0.055    29.313     8.879
     4   6 C        2.995    -0.054    29.337     8.885
     5   8 O        1.729    -0.167    16.810     5.536
     6   1 H        0.926     0.057     2.230     2.335
     7   1 H        0.926     0.054     2.272     2.357
     8   1 H        0.927     0.054     2.275     2.358

Wiberg/Mayer (AO) data.
largest (>0.10) Wiberg bond orders for each atom

     #   Z sym  total        # sym  WBO       # sym  WBO       # sym  WBO
 ---------------------------------------------------------------------------
     1   6 C    2.984 --     4 C    1.604     5 O    1.184     2 C    0.146
     2   6 C    3.848 --     3 C    1.623     5 O    1.087     6 H    0.964
                             1 C    0.146
     3   6 C    3.918 --     2 C    1.623     4 C    1.221     7 H    0.965
     4   6 C    3.902 --     1 C    1.604     3 C    1.221     8 H    0.974
     5   8 O    2.443 --     1 C    1.184     2 C    1.087
     6   1 H    0.994 --     2 C    0.964
     7   1 H    0.989 --     3 C    0.965
     8   1 H    0.997 --     4 C    0.974
 ---------------------------------------------------------------------------

molecular dipole:
                 x           y           z       tot (Debye)
 q only:        0.281      -0.347      -0.000
   full:        0.233      -0.447      -0.000       1.281

           -------------------------------------------------
          | TOTAL ENERGY              -14.030045666586 Eh   |
          | GRADIENT NORM               0.000344846290 Eh/α |
          | HOMO-LUMO GAP               4.187241096536 eV   |
           -------------------------------------------------

 * finished run on 2022/11/14 at 22:12:22.026
