   * xtb version 6.5.1 (579679a) compiled by 'ehlert@majestix' on 2022-07-11
          program call               : xtb [Ir+3]_1228758-57-3_SP1.xyz --gfn2 --chrg 0 --uhf 1 --alpb ch2cl2 --opt 1

   ID    Z sym.   atoms
    1    6 C      1, 3-8, 10-13, 16-21, 23-27, 29, 30
    2    8 O      2, 22, 28, 31
    3   15 P      9, 15
    4   77 Ir     14
    5    1 H      32-63

      * Solvation model:               ALPB
        Solvent                        ch2cl2
        Solvent mass                       8.4930E+01 g/mol
          :  Hamiltonian                  GFN2-xTB          :
 * total energy  :   -90.8166024 Eh     change       -0.1279035E-07 Eh
 * total energy  :   -92.2182378 Eh     change       -0.1401635E+01 Eh
 * total energy  :   -92.5019347 Eh     change       -0.2836969E+00 Eh
 * total energy  :   -92.6307494 Eh     change       -0.1288147E+00 Eh
 * total energy  :   -92.7072751 Eh     change       -0.7652562E-01 Eh
 * total energy  :   -92.7402564 Eh     change       -0.3298130E-01 Eh
 * total energy  :   -92.7629417 Eh     change       -0.2268530E-01 Eh
 * total energy  :   -92.7801580 Eh     change       -0.1721629E-01 Eh
 * total energy  :   -92.7919842 Eh     change       -0.1182626E-01 Eh
 * total energy  :   -92.8005842 Eh     change       -0.8599990E-02 Eh
 * total energy  :   -92.8328080 Eh     change       -0.2862321E-05 Eh
 * total energy  :   -92.8328102 Eh     change       -0.2121045E-05 Eh
 * total energy  :   -92.8328119 Eh     change       -0.1780724E-05 Eh
 * total energy  :   -92.8328136 Eh     change       -0.1676789E-05 Eh
 * total energy  :   -92.8328154 Eh     change       -0.1742876E-05 Eh
 * total energy  :   -92.8328171 Eh     change       -0.1738917E-05 Eh
 * total energy  :   -92.8328187 Eh     change       -0.1607290E-05 Eh
 * total energy  :   -92.8328200 Eh     change       -0.1273442E-05 Eh
 * total energy  :   -92.8328209 Eh     change       -0.8873889E-06 Eh
   *** GEOMETRY OPTIMIZATION CONVERGED AFTER 91 ITERATIONS ***

 final structure:
================
63
 xtb: 6.5.1 (579679a)
C            2.70058503247205        1.46710795482557       -1.02922780978273
O            1.83912459350006        0.91976928571786       -0.04486455760283
C            2.39949328052606        0.50494576522379        1.15632515271880
C            3.76402713524621        0.33512395268007        1.33465285197164
C            4.26810757331451       -0.05538065071934        2.56833023695027
C            3.41999192786489       -0.26806514283377        3.64578276247262
C            2.06499209840144       -0.11234833024365        3.45412919217229
C            1.53860971167548        0.26477991308359        2.24613894322870
P           -0.25234254089956        0.49151226183686        1.99940183562380
C           -0.64652518672250        1.95995462416358        3.09398555477675
C           -0.28264848293810        1.62619510264356        4.53565816498945
C           -2.14827221769643        2.20049719980959        2.96002367409923
C            0.14293854900963        3.16241627555874        2.57784168546051
Ir          -0.31329445237523        0.61138316486585       -0.24282667109010
P           -2.27154314548674       -0.42987515293778       -0.08383355189750
C           -3.95720242985197       -0.15030726275220       -0.88282370883929
C           -4.55217828067202        1.08819842697997       -0.21487957341582
C           -3.67383886986111        0.12607318402488       -2.35873112116364
C           -4.87861563795216       -1.35527759475200       -0.72584943585270
C           -1.71550994443953       -2.03175746352774       -0.67625009422320
C           -0.81324326489044       -2.24022508750851       -1.71100491007470
O           -0.35496092719343       -1.09352656590495       -2.30759109837333
C            0.52269571718739       -1.22252143703603       -3.40942503582529
C           -0.43006268483338       -3.54383548062889       -1.99435983465884
C           -0.90904938336932       -4.57750694028078       -1.19462511157741
C           -1.69666393768893       -4.35514691354689       -0.07677881668089
C           -2.06760394906048       -3.04688007494817        0.21092733719773
O           -2.75141351559614       -2.65170906020023        1.30666798283524
C           -2.55589044599526       -1.25937696573926        1.56969922196649
C           -1.36438803955300       -1.11495273869828        2.61017948987243
O           -1.72249301293969       -1.02698016910862        3.83184482620213
H            3.33050528170004        0.69305785951532       -1.47939986228439
H            3.33134353626579        2.25093062064799       -0.60044106618560
H            2.06380367333261        1.90417117824283       -1.79921927626021
H            4.45599436363235        0.49716006821835        0.52259468810838
H            5.33480378898379       -0.19243015872319        2.68214541720994
H            3.81967913968878       -0.56036213637613        4.60672491851102
H           -0.85792306820906        0.76031511629709        4.85969271554214
H           -0.50034621128279        2.47061615797954        5.18806421238859
H            0.77596098808969        1.37379594651542        4.61915551515407
H           -2.40981162930486        2.37144212019229        1.91656617958960
H           -2.45196673190631        3.06284771794270        3.55104459347561
H           -2.68364178517119        1.32544589286419        3.32359918694870
H           -0.13920588943102        4.06037156293120        3.12495018810255
H           -0.06420462747626        3.31763665518468        1.51858027796412
H            1.21194158234178        3.00239950744702        2.70920532878669
H           -4.71383520641628        0.91366965827286        0.84757305072778
H           -3.87539798445671        1.93441862075507       -0.32495971182442
H           -5.50719096203141        1.34431249068688       -0.67045534978173
H           -2.95034205446255        0.93578604986390       -2.45639266427523
H           -3.26999170703349       -0.76150910579409       -2.84275827628231
H           -4.58836475697701        0.41398911341723       -2.87423742328441
H           -5.06682194950844       -1.57493608779915        0.32308498941875
H           -4.44613746745370       -2.24136367923089       -1.18899650267708
H           -5.83496090764849       -1.15144726413286       -1.20618933614300
H            0.70244250979018       -0.21291590641633       -3.77578751458997
H            0.06570966484786       -1.81665725100189       -4.20517713135833
H            1.47096695904917       -1.68032034294262       -3.11105349855504
H            0.24678111068528       -3.77448255474829       -2.80126047395135
H           -0.61002842199214       -5.58877102981576       -1.42718217573404
H           -1.99005637354208       -5.16290056747824        0.57399910969706
H           -3.45498088027313       -0.91150983673255        2.08824471058548
H           -0.63134925298526       -1.93204449581034        2.36106759951269

          :  Hamiltonian                  GFN2-xTB          :
         :: total energy             -92.832820866735 Eh    ::
         :: gradient norm              0.000074692447 Eh/a0 ::
         :: HOMO-LUMO gap              1.531362090771 eV    ::
         :: SCC energy               -94.025065523167 Eh    ::
         :: -> dispersion             -0.091798314478 Eh    ::
         :: -> Gsolv                  -0.056561918474 Eh    ::
         :: repulsion energy           1.188877291820 Eh    ::

    * Orbital Energies and Occupations

         #    Occupation            Energy/Eh            Energy/eV
      -------------------------------------------------------------
         1        2.0000           -0.7380113             -20.0823
       ...           ...                  ...                  ...
        74        2.0000           -0.4078686             -11.0987
        75        2.0000           -0.3971978             -10.8083
        76        2.0000           -0.3937500             -10.7145
        77        2.0000           -0.3885442             -10.5728
        78        2.0000           -0.3873577             -10.5405
        79        2.0000           -0.3751940             -10.2095
        80        2.0000           -0.3367907              -9.1645
        81        2.0000           -0.3310546              -9.0085
        82        2.0000           -0.3227107              -8.7814
        83        2.0000           -0.3189424              -8.6789
        84        1.9979           -0.3144256              -8.5560
        85        1.8743           -0.3104249              -8.4471
        86        1.1279           -0.3067582              -8.3473 (HOMO)
        87                         -0.2504817              -6.8160 (LUMO)
        88                         -0.2439265              -6.6376
        89                         -0.2317335              -6.3058
        90                         -0.2211806              -6.0186
        91                         -0.2102610              -5.7215
        92                         -0.1818509              -4.9484
        93                         -0.1582724              -4.3068
        94                         -0.1312493              -3.5715
        95                         -0.1213044              -3.3009
        96                         -0.1069706              -2.9108
        97                         -0.0886774              -2.4130
       ...                                ...                  ...
       171                          2.5348633              68.9771
      -------------------------------------------------------------
                  HL-Gap            0.0562765 Eh            1.5314 eV

     #   Z          covCN         q      C6AA      α(0)
     1   6 C        3.637     0.031    20.417     6.500
     2   8 O        2.297    -0.177    16.949     5.560
     3   6 C        2.946     0.121    25.342     8.256
     4   6 C        2.916    -0.075    29.860     8.961
     5   6 C        2.924    -0.037    28.915     8.818
     6   6 C        2.916    -0.034    28.850     8.808
     7   6 C        2.069    -0.111    34.004     9.420
     8   6 C        2.921    -0.012    28.309     8.725
     9  15 P        4.542     0.046   158.215    22.595
    10   6 C        3.849     0.035    19.959     6.355
    11   6 C        3.838    -0.118    22.726     6.782
    12   6 C        3.877    -0.123    22.802     6.789
    13   6 C        3.850    -0.117    22.707     6.778
    14  77 Ir       2.604     0.005   303.161    31.966
    15  15 P        4.692     0.068   157.247    22.526
    16   6 C        3.848     0.023    20.150     6.385
    17   6 C        3.864    -0.122    22.790     6.789
    18   6 C        3.875    -0.114    22.635     6.765
    19   6 C        3.806    -0.109    22.570     6.763
    20   6 C        2.942    -0.063    29.555     8.916
    21   6 C        2.913     0.136    25.030     8.204
    22   8 O        1.746    -0.225    17.716     5.683
    23   6 C        3.642     0.033    20.372     6.490
    24   6 C        2.917    -0.081    30.027     8.986
    25   6 C        2.926    -0.033    28.817     8.803
    26   6 C        2.913    -0.069    29.722     8.940
    27   6 C        3.113     0.150    24.601     8.125
    28   8 O        1.745    -0.267    18.421     5.795
    29   6 C        3.744     0.071    19.468     6.294
    30   6 C        3.659     0.181    17.958     6.081
    31   8 O        0.865    -0.628    26.806     6.942
    32   1 H        0.924     0.055     2.255     2.348
    33   1 H        0.924     0.060     2.198     2.319
    34   1 H        0.924     0.080     1.982     2.202
    35   1 H        0.926     0.040     2.442     2.444
    36   1 H        0.925     0.034     2.529     2.487
    37   1 H        0.926     0.029     2.597     2.520
    38   1 H        0.925     0.071     2.072     2.251
    39   1 H        0.925     0.044     2.390     2.418
    40   1 H        0.924     0.052     2.300     2.372
    41   1 H        0.925     0.058     2.222     2.331
    42   1 H        0.925     0.054     2.272     2.357
    43   1 H        0.925     0.056     2.246     2.344
    44   1 H        0.925     0.053     2.277     2.360
    45   1 H        0.924     0.058     2.225     2.333
    46   1 H        0.925     0.042     2.418     2.432
    47   1 H        0.925     0.051     2.310     2.377
    48   1 H        0.925     0.059     2.205     2.322
    49   1 H        0.925     0.059     2.208     2.324
    50   1 H        0.924     0.058     2.222     2.331
    51   1 H        0.925     0.048     2.350     2.397
    52   1 H        0.925     0.056     2.251     2.346
    53   1 H        0.925     0.048     2.343     2.394
    54   1 H        0.925     0.043     2.410     2.427
    55   1 H        0.925     0.054     2.271     2.357
    56   1 H        0.925     0.073     2.049     2.239
    57   1 H        0.924     0.053     2.285     2.364
    58   1 H        0.924     0.050     2.319     2.382
    59   1 H        0.926     0.049     2.326     2.385
    60   1 H        0.926     0.050     2.322     2.383
    61   1 H        0.926     0.049     2.331     2.388
    62   1 H        0.924     0.059     2.214     2.327
    63   1 H        0.919    -0.032     3.688     3.004

Wiberg/Mayer (AO) data.
largest (>0.10) Wiberg bond orders for each atom

     #   Z sym  total        # sym  WBO       # sym  WBO       # sym  WBO
 ---------------------------------------------------------------------------
     1   6 C    3.923 --    33 H    0.976    32 H    0.976    34 H    0.969
                             2 O    0.955
     2   8 O    2.461 --     3 C    0.989     1 C    0.955    14 Ir   0.344
     3   6 C    3.879 --     4 C    1.406     8 C    1.282     2 O    0.989
     4   6 C    3.978 --     5 C    1.416     3 C    1.406    35 H    0.960
     5   6 C    3.936 --     6 C    1.423     4 C    1.416    36 H    0.965
     6   6 C    3.954 --     5 C    1.423     7 C    1.415    37 H    0.964
     7   6 C    3.164 --     8 C    1.426     6 C    1.415
     8   6 C    3.954 --     7 C    1.426     3 C    1.282     9 P    0.964
     9  15 P    4.281 --    14 Ir   1.168     8 C    0.964    10 C    0.901
                            30 C    0.678    31 O    0.142
    10   6 C    3.981 --    11 C    0.989    13 C    0.989    12 C    0.988
                             9 P    0.901
    11   6 C    3.979 --    10 C    0.989    39 H    0.977    38 H    0.969
                            40 H    0.958
    12   6 C    3.991 --    10 C    0.988    42 H    0.980    43 H    0.974
                            41 H    0.968
    13   6 C    3.994 --    10 C    0.989    46 H    0.980    44 H    0.979
                            45 H    0.968
    14  77 Ir   3.281 --     9 P    1.168    15 P    1.051     2 O    0.344
                            22 O    0.144
    15  15 P    4.350 --    14 Ir   1.051    20 C    1.000    29 C    0.944
                            16 C    0.887
    16   6 C    3.982 --    19 C    0.992    17 C    0.990    18 C    0.990
                            15 P    0.887
    17   6 C    3.993 --    16 C    0.990    49 H    0.979    47 H    0.975
                            48 H    0.972
    18   6 C    3.993 --    16 C    0.990    52 H    0.979    51 H    0.978
                            50 H    0.969
    19   6 C    3.994 --    16 C    0.992    54 H    0.978    53 H    0.977
                            55 H    0.977
    20   6 C    3.972 --    21 C    1.331    27 C    1.310    15 P    1.000
    21   6 C    3.935 --    24 C    1.383    20 C    1.331    22 O    1.038
    22   8 O    2.344 --    21 C    1.038    23 C    0.966    14 Ir   0.144
    23   6 C    3.932 --    56 H    0.978    57 H    0.978    58 H    0.978
                            22 O    0.966
    24   6 C    3.979 --    25 C    1.416    21 C    1.383    59 H    0.965
    25   6 C    3.972 --    26 C    1.453    24 C    1.416    60 H    0.970
    26   6 C    3.983 --    25 C    1.453    27 C    1.352    61 H    0.967
    27   6 C    3.936 --    26 C    1.352    20 C    1.310    28 O    1.083
    28   8 O    2.261 --    27 C    1.083    29 C    0.947
    29   6 C    3.911 --    28 O    0.947    62 H    0.944    15 P    0.944
                            30 C    0.880
    30   6 C    3.963 --    31 O    1.342    63 H    0.903    29 C    0.880
                             9 P    0.678
    31   8 O    1.720 --    30 C    1.342     9 P    0.142
    32   1 H    0.996 --     1 C    0.976
    33   1 H    0.996 --     1 C    0.976
    34   1 H    0.993 --     1 C    0.969
    35   1 H    0.992 --     4 C    0.960
    36   1 H    0.988 --     5 C    0.965
    37   1 H    0.990 --     6 C    0.964
    38   1 H    0.995 --    11 C    0.969
    39   1 H    0.993 --    11 C    0.977
    40   1 H    0.997 --    11 C    0.958
    41   1 H    0.996 --    12 C    0.968
    42   1 H    0.996 --    12 C    0.980
    43   1 H    0.997 --    12 C    0.974
    44   1 H    0.994 --    13 C    0.979
    45   1 H    0.997 --    13 C    0.968
    46   1 H    0.998 --    13 C    0.980
    47   1 H    0.997 --    17 C    0.975
    48   1 H    0.996 --    17 C    0.972
    49   1 H    0.995 --    17 C    0.979
    50   1 H    0.996 --    18 C    0.969
    51   1 H    0.998 --    18 C    0.978
    52   1 H    0.996 --    18 C    0.979
    53   1 H    0.998 --    19 C    0.977
    54   1 H    0.998 --    19 C    0.978
    55   1 H    0.993 --    19 C    0.977
    56   1 H    0.994 --    23 C    0.978
    57   1 H    0.997 --    23 C    0.978
    58   1 H    0.997 --    23 C    0.978
    59   1 H    0.997 --    24 C    0.965
    60   1 H    0.997 --    25 C    0.970
    61   1 H    0.997 --    26 C    0.967
    62   1 H    0.995 --    29 C    0.944
    63   1 H    0.998 --    30 C    0.903
 ---------------------------------------------------------------------------

molecular dipole:
                 x           y           z       tot (Debye)
 q only:        0.766       2.172      -5.043
   full:        1.838       1.713      -6.059      16.672

           -------------------------------------------------
          | TOTAL ENERGY              -92.832820866735 Eh   |
          | GRADIENT NORM               0.000074692447 Eh/α |
          | HOMO-LUMO GAP               1.531362090771 eV   |
           -------------------------------------------------

 * finished run on 2022/10/30 at 20:48:36.317
