   * xtb version 6.5.1 (b24c23e) compiled by 'conda@728c89f4b128' on 2022-07-12
          program call               : xtb 3_5_trifluoro_methyl_phenyl.xyz --gfn2 --chrg 0 --uhf 1 --alpb ch2cl2 --opt 1

   ID    Z sym.   atoms
    1    6 C      1-6, 10, 11
    2    1 H      7-9
    3    9 F      12-17

      * Solvation model:               ALPB
        Solvent                        ch2cl2
        Solvent mass                       8.4930E+01 g/mol
          :  Hamiltonian                  GFN2-xTB          :
 * total energy  :   -46.9656986 Eh     change       -0.7796075E-10 Eh
 * total energy  :   -46.9744112 Eh     change       -0.8712559E-02 Eh
 * total energy  :   -46.9758125 Eh     change       -0.1401370E-02 Eh
 * total energy  :   -46.9758773 Eh     change       -0.6474045E-04 Eh
 * total energy  :   -46.9759006 Eh     change       -0.2326964E-04 Eh
 * total energy  :   -46.9759055 Eh     change       -0.4920806E-05 Eh
 * total energy  :   -46.9759071 Eh     change       -0.1609968E-05 Eh
 * total energy  :   -46.9759074 Eh     change       -0.3044071E-06 Eh
   *** GEOMETRY OPTIMIZATION CONVERGED AFTER 8 ITERATIONS ***

 final structure:
================
17
 xtb: 6.5.1 (b24c23e)
C            0.02781689397963        0.00182240374187        0.00063913631230
C            1.42574025795996       -0.00359193227298        0.00939635810180
C            2.03543734615323        1.21453619291798        0.00210676116817
C            1.41124626763857        2.42408566367800       -0.01230710120299
C            0.01168364251175        2.40333271255222       -0.02276259421253
C           -0.67669347170811        1.19889806365232       -0.01302386884468
H            1.97508585777494       -0.93257500082509        0.02015575084124
H            1.94830713776942        3.36031956096885       -0.02104027547524
H           -1.75722804380031        1.18975318076730       -0.02136915653474
C           -0.75337547855604        3.70074032562698       -0.00493233710934
C           -0.75051398375144       -1.28798245569289        0.00343246353189
F           -1.93597718898395        3.61458742026897       -0.63221880777011
F           -0.08478551350857        4.70713534979075       -0.58481320023057
F           -1.02512117365195        4.10725060505235        1.25145875728382
F           -1.52574282723411       -1.41215749872435       -1.09018514922197
F           -1.58282980730432       -1.37358459834287        1.05771909575125
F            0.02515776471132       -2.37676095315941        0.04323368761168

          :  Hamiltonian                  GFN2-xTB          :
         :: total energy             -46.975907392215 Eh    ::
         :: gradient norm              0.000205700260 Eh/a0 ::
         :: HOMO-LUMO gap              2.128482803095 eV    ::
         :: SCC energy               -47.336218761816 Eh    ::
         :: -> dispersion             -0.014993456092 Eh    ::
         :: -> Gsolv                  -0.010147409072 Eh    ::
         :: repulsion energy           0.360268777676 Eh    ::

    * Orbital Energies and Occupations

         #    Occupation            Energy/Eh            Energy/eV
      -------------------------------------------------------------
         1        2.0000           -0.8993731             -24.4732
       ...           ...                  ...                  ...
        27        2.0000           -0.5539022             -15.0724
        28        2.0000           -0.5527262             -15.0404
        29        2.0000           -0.5525488             -15.0356
        30        2.0000           -0.5520418             -15.0218
        31        2.0000           -0.5503256             -14.9751
        32        2.0000           -0.5412439             -14.7280
        33        2.0000           -0.5299095             -14.4196
        34        2.0000           -0.5226393             -14.2217
        35        2.0000           -0.5133912             -13.9701
        36        2.0000           -0.4877008             -13.2710
        37        2.0000           -0.4733060             -12.8793
        38        2.0000           -0.4658620             -12.6767
        39        1.0000           -0.3788039             -10.3078 (HOMO)
        40                         -0.3005836              -8.1793 (LUMO)
        41                         -0.2837047              -7.7200
        42                         -0.1619300              -4.4063
        43                         -0.0080568              -0.2192
        44                          0.0198005               0.5388
        45                          0.0288365               0.7847
        46                          0.0518053               1.4097
        47                          0.0596103               1.6221
        48                          0.0656957               1.7877
        49                          0.0754595               2.0534
        50                          0.1182781               3.2185
       ...                                ...                  ...
        59                          0.5931799              16.1412
      -------------------------------------------------------------
                  HL-Gap            0.0782203 Eh            2.1285 eV

     #   Z          covCN         q      C6AA      α(0)
     1   6 C        2.990    -0.009    28.237     8.717
     2   6 C        2.913    -0.001    28.042     8.683
     3   6 C        2.026    -0.016    31.441     9.056
     4   6 C        2.914    -0.000    28.033     8.682
     5   6 C        2.989    -0.009    28.234     8.716
     6   6 C        2.920    -0.019    28.477     8.751
     7   1 H        0.926     0.106     1.729     2.057
     8   1 H        0.926     0.104     1.747     2.067
     9   1 H        0.926     0.090     1.880     2.144
    10   6 C        3.335     0.491    17.228     6.576
    11   6 C        3.335     0.491    17.224     6.574
    12   9 F        0.791    -0.205    11.284     3.968
    13   9 F        0.791    -0.201    11.248     3.962
    14   9 F        0.791    -0.209    11.325     3.975
    15   9 F        0.791    -0.208    11.316     3.974
    16   9 F        0.791    -0.208    11.316     3.974
    17   9 F        0.791    -0.199    11.224     3.957

Wiberg/Mayer (AO) data.
largest (>0.10) Wiberg bond orders for each atom

     #   Z sym  total        # sym  WBO       # sym  WBO       # sym  WBO
 ---------------------------------------------------------------------------
     1   6 C    3.925 --     6 C    1.420     2 C    1.364    11 C    0.944
                             4 C    0.110
     2   6 C    3.950 --     3 C    1.468     1 C    1.364     7 H    0.946
                             5 C    0.109
     3   6 C    3.103 --     4 C    1.475     2 C    1.468     6 C    0.108
     4   6 C    3.951 --     3 C    1.475     5 C    1.357     8 H    0.947
                             1 C    0.110
     5   6 C    3.925 --     6 C    1.427     4 C    1.357    10 C    0.945
                             2 C    0.109
     6   6 C    3.986 --     5 C    1.427     1 C    1.420     9 H    0.956
                             3 C    0.108
     7   1 H    0.974 --     2 C    0.946
     8   1 H    0.975 --     4 C    0.947
     9   1 H    0.984 --     6 C    0.956
    10   6 C    3.819 --    13 F    0.953    12 F    0.949     5 C    0.945
                            14 F    0.939
    11   6 C    3.819 --    17 F    0.957     1 C    0.944    16 F    0.942
                            15 F    0.942
    12   9 F    1.073 --    10 C    0.949
    13   9 F    1.077 --    10 C    0.953
    14   9 F    1.069 --    10 C    0.939
    15   9 F    1.069 --    11 C    0.942
    16   9 F    1.069 --    11 C    0.942
    17   9 F    1.080 --    11 C    0.957
 ---------------------------------------------------------------------------

molecular dipole:
                 x           y           z       tot (Debye)
 q only:        1.440      -0.025      -0.034
   full:        1.283      -0.026      -0.035       3.264

           -------------------------------------------------
          | TOTAL ENERGY              -46.975907392215 Eh   |
          | GRADIENT NORM               0.000205700260 Eh/α |
          | HOMO-LUMO GAP               2.128482803095 eV   |
           -------------------------------------------------

 * finished run on 2022/11/14 at 22:11:32.672
