   * xtb version 6.5.1 (b24c23e) compiled by 'conda@728c89f4b128' on 2022-07-12
          program call               : xtb naphtalenyl.xyz --gfn2 --chrg 0 --uhf 1 --alpb ch2cl2 --opt 1

   ID    Z sym.   atoms
    1    6 C      1-7, 11, 14, 15
    2    1 H      8-10, 12, 13, 16, 17

      * Solvation model:               ALPB
        Solvent                        ch2cl2
        Solvent mass                       8.4930E+01 g/mol
          :  Hamiltonian                  GFN2-xTB          :
 * total energy  :   -24.8720805 Eh     change       -0.1500471E-08 Eh
 * total energy  :   -24.8764216 Eh     change       -0.4341053E-02 Eh
 * total energy  :   -24.8770115 Eh     change       -0.5899285E-03 Eh
 * total energy  :   -24.8770492 Eh     change       -0.3772719E-04 Eh
 * total energy  :   -24.8770562 Eh     change       -0.6937519E-05 Eh
 * total energy  :   -24.8770565 Eh     change       -0.3761849E-06 Eh
   *** GEOMETRY OPTIMIZATION CONVERGED AFTER 6 ITERATIONS ***

 final structure:
================
17
 xtb: 6.5.1 (b24c23e)
C            2.12834022975599        3.61203123721210        0.00027713351777
C            0.00202422686110        0.01084334671174        0.00007798803188
C            1.36950838300035        0.01208394579387       -0.00008876132235
C            2.09759031481734        1.21851097462525       -0.00002111089488
C            1.36678502291188        2.45140561884285        0.00024272133547
C           -0.04257323611904        2.41413143339996        0.00040686882517
C           -0.70954589306806        1.22076745100089        0.00032049960974
H            4.05181006621903        0.32921715349385       -0.00039507937180
H           -0.54082842303260       -0.92353085282361        0.00001403272383
H            1.91895618669871       -0.91962013430368       -0.00029024592274
C            3.50810194750906        1.26430115655925       -0.00019659767424
H           -0.58178884998346        3.35049903786890        0.00059969224591
H           -1.78992163793734        1.20036593559604        0.00045818374144
C            3.47258871348400        3.67338358372270        0.00007867153854
C            4.18575240986404        2.44966192179577       -0.00014002627828
H            4.01219403518569        4.60878693876811        0.00022884393901
H            5.26635950383329        2.47386525173601       -0.00026181404449

          :  Hamiltonian                  GFN2-xTB          :
         :: total energy             -24.877056549683 Eh    ::
         :: gradient norm              0.000192874085 Eh/a0 ::
         :: HOMO-LUMO gap              1.718531179182 eV    ::
         :: SCC energy               -25.371925497068 Eh    ::
         :: -> dispersion             -0.015839381490 Eh    ::
         :: -> Gsolv                  -0.010660930449 Eh    ::
         :: repulsion energy           0.494844252163 Eh    ::

    * Orbital Energies and Occupations

         #    Occupation            Energy/Eh            Energy/eV
      -------------------------------------------------------------
         1        2.0000           -0.6507046             -17.7066
       ...           ...                  ...                  ...
        12        2.0000           -0.4925420             -13.4027
        13        2.0000           -0.4896400             -13.3238
        14        2.0000           -0.4858924             -13.2218
        15        2.0000           -0.4744146             -12.9095
        16        2.0000           -0.4637867             -12.6203
        17        2.0000           -0.4572008             -12.4411
        18        2.0000           -0.4533279             -12.3357
        19        2.0000           -0.4286534             -11.6643
        20        2.0000           -0.4267293             -11.6119
        21        2.0000           -0.4203366             -11.4379
        22        2.0000           -0.4014012             -10.9227
        23        2.0000           -0.3789516             -10.3118
        24        1.0000           -0.3212051              -8.7404 (HOMO)
        25                         -0.2580503              -7.0219 (LUMO)
        26                         -0.2325800              -6.3288
        27                         -0.1842176              -5.0128
        28                         -0.1446934              -3.9373
        29                         -0.0546925              -1.4883
        30                          0.1107290               3.0131
        31                          0.1212009               3.2980
        32                          0.1394060               3.7934
        33                          0.1510600               4.1106
        34                          0.1703537               4.6356
        35                          0.1831780               4.9845
       ...                                ...                  ...
        47                          0.7035556              19.1447
      -------------------------------------------------------------
                  HL-Gap            0.0631549 Eh            1.7185 eV

     #   Z          covCN         q      C6AA      α(0)
     1   6 C        2.011    -0.077    33.130     9.296
     2   6 C        2.915    -0.030    28.741     8.791
     3   6 C        2.917    -0.035    28.870     8.811
     4   6 C        2.991     0.015    27.660     8.627
     5   6 C        2.982     0.026    27.411     8.588
     6   6 C        2.915    -0.031    28.778     8.797
     7   6 C        2.916    -0.031    28.764     8.795
     8   1 H        0.925     0.038     2.478     2.462
     9   1 H        0.926     0.033     2.548     2.496
    10   1 H        0.925     0.036     2.505     2.475
    11   6 C        2.915    -0.043    29.071     8.841
    12   1 H        0.926     0.039     2.458     2.452
    13   1 H        0.926     0.033     2.549     2.497
    14   6 C        2.911    -0.025    28.632     8.774
    15   6 C        2.925    -0.028    28.699     8.785
    16   1 H        0.926     0.042     2.425     2.435
    17   1 H        0.926     0.038     2.472     2.459

Wiberg/Mayer (AO) data.
largest (>0.10) Wiberg bond orders for each atom

     #   Z sym  total        # sym  WBO       # sym  WBO       # sym  WBO
 ---------------------------------------------------------------------------
     1   6 C    3.112 --    14 C    1.596     5 C    1.308    11 C    0.112
     2   6 C    3.992 --     3 C    1.552     7 C    1.324     9 H    0.971
     3   6 C    3.983 --     2 C    1.552     4 C    1.282    10 H    0.964
                             6 C    0.117
     4   6 C    3.931 --     3 C    1.282    11 C    1.281     5 C    1.189
     5   6 C    3.953 --     1 C    1.308     6 C    1.277     4 C    1.189
     6   6 C    3.983 --     7 C    1.553     5 C    1.277    12 H    0.968
                             3 C    0.117
     7   6 C    3.992 --     6 C    1.553     2 C    1.324    13 H    0.971
     8   1 H    0.989 --    11 C    0.961
     9   1 H    0.998 --     2 C    0.971
    10   1 H    0.992 --     3 C    0.964
    11   6 C    3.990 --    15 C    1.568     4 C    1.281     8 H    0.961
                             1 C    0.112
    12   1 H    0.995 --     6 C    0.968
    13   1 H    0.998 --     7 C    0.971
    14   6 C    3.958 --     1 C    1.596    15 C    1.254    16 H    0.957
    15   6 C    3.929 --    11 C    1.568    14 C    1.254    17 H    0.963
    16   1 H    0.983 --    14 C    0.957
    17   1 H    0.988 --    15 C    0.963
 ---------------------------------------------------------------------------

molecular dipole:
                 x           y           z       tot (Debye)
 q only:        0.028      -0.222      -0.000
   full:        0.133      -0.368      -0.000       0.993

           -------------------------------------------------
          | TOTAL ENERGY              -24.877056549683 Eh   |
          | GRADIENT NORM               0.000192874085 Eh/α |
          | HOMO-LUMO GAP               1.718531179182 eV   |
           -------------------------------------------------

 * finished run on 2022/11/14 at 22:12:30.653
