   * xtb version 6.5.1 (b24c23e) compiled by 'conda@728c89f4b128' on 2022-07-12
          program call               : xtb C6H6-CH3_ortho_1.xyz --gfn2 --chrg 0 --uhf 1 --alpb ch2cl2 --opt 1

   ID    Z sym.   atoms
    1    6 C      1-6, 11
    2    1 H      7-10, 12-14

      * Solvation model:               ALPB
        Solvent                        ch2cl2
        Solvent mass                       8.4930E+01 g/mol
          :  Hamiltonian                  GFN2-xTB          :
 * total energy  :   -18.4443161 Eh     change       -0.1057927E-09 Eh
 * total energy  :   -18.4490066 Eh     change       -0.4690493E-02 Eh
 * total energy  :   -18.4498140 Eh     change       -0.8073993E-03 Eh
 * total energy  :   -18.4498618 Eh     change       -0.4776034E-04 Eh
 * total energy  :   -18.4498668 Eh     change       -0.5002650E-05 Eh
 * total energy  :   -18.4498672 Eh     change       -0.3930830E-06 Eh
   *** GEOMETRY OPTIMIZATION CONVERGED AFTER 6 ITERATIONS ***

 final structure:
================
14
 xtb: 6.5.1 (b24c23e)
C            0.42167057137621        2.78497811882882       -0.00093102328771
C           -0.92862633814032        0.44569006089851        0.00001733499103
C            0.45411163662876        0.44166973619673        0.00054227044855
C            1.17429261855985        1.64216612452571        0.00009051977292
C           -0.93967302138123        2.84364398045075       -0.00151390944691
C           -1.63603571931721        1.63567724493823       -0.00100789383006
H           -1.46383128066245       -0.49399670633405        0.00038632486196
H            0.99909761883766       -0.49305016297083        0.00136181349896
H           -1.47235783157173        3.78359136076527       -0.00230194489473
H           -2.71692603507434        1.63790036955984       -0.00144728971927
C            2.67376285357987        1.64004455703662        0.00070943275885
H            3.05074115518995        1.12257163695900        0.88247733593926
H            3.05146794929569        1.12202314915968       -0.88042556379433
H            3.05720582267929        2.65709052998571        0.00054259270149

          :  Hamiltonian                  GFN2-xTB          :
         :: total energy             -18.449867198015 Eh    ::
         :: gradient norm              0.000230426731 Eh/a0 ::
         :: HOMO-LUMO gap              2.566363494929 eV    ::
         :: SCC energy               -18.802323728979 Eh    ::
         :: -> dispersion             -0.009792234616 Eh    ::
         :: -> Gsolv                  -0.008217305654 Eh    ::
         :: repulsion energy           0.352444640599 Eh    ::

    * Orbital Energies and Occupations

         #    Occupation            Energy/Eh            Energy/eV
      -------------------------------------------------------------
         1        2.0000           -0.6428860             -17.4938
       ...           ...                  ...                  ...
         6        2.0000           -0.5580969             -15.1866
         7        2.0000           -0.5205169             -14.1640
         8        2.0000           -0.4986167             -13.5681
         9        2.0000           -0.4928128             -13.4101
        10        2.0000           -0.4890633             -13.3081
        11        2.0000           -0.4745647             -12.9136
        12        2.0000           -0.4619551             -12.5704
        13        2.0000           -0.4616900             -12.5632
        14        2.0000           -0.4449025             -12.1064
        15        2.0000           -0.4243480             -11.5471
        16        2.0000           -0.4001203             -10.8878
        17        2.0000           -0.3921140             -10.6700
        18        1.0000           -0.3180043              -8.6533 (HOMO)
        19                         -0.2236922              -6.0870 (LUMO)
        20                         -0.2109297              -5.7397
        21                         -0.0863114              -2.3487
        22                          0.1039934               2.8298
        23                          0.1376687               3.7462
        24                          0.1620011               4.4083
        25                          0.1686634               4.5896
        26                          0.1811178               4.9285
        27                          0.2029824               5.5234
        28                          0.2253875               6.1331
        29                          0.2335714               6.3558
       ...                                ...                  ...
        35                          0.6596886              17.9510
      -------------------------------------------------------------
                  HL-Gap            0.0943121 Eh            2.5664 eV

     #   Z          covCN         q      C6AA      α(0)
     1   6 C        2.026    -0.080    33.188     9.304
     2   6 C        2.916    -0.038    28.953     8.824
     3   6 C        2.937    -0.039    28.968     8.827
     4   6 C        2.961     0.029    27.356     8.579
     5   6 C        2.914    -0.023    28.588     8.768
     6   6 C        2.930    -0.033    28.831     8.806
     7   1 H        0.925     0.034     2.528     2.487
     8   1 H        0.925     0.038     2.473     2.459
     9   1 H        0.926     0.040     2.448     2.447
    10   1 H        0.926     0.034     2.529     2.487
    11   6 C        3.756    -0.107    22.591     6.777
    12   1 H        0.925     0.048     2.340     2.392
    13   1 H        0.925     0.048     2.340     2.392
    14   1 H        0.925     0.048     2.341     2.392

Wiberg/Mayer (AO) data.
largest (>0.10) Wiberg bond orders for each atom

     #   Z sym  total        # sym  WBO       # sym  WBO       # sym  WBO
 ---------------------------------------------------------------------------
     1   6 C    3.102 --     5 C    1.477     4 C    1.439     2 C    0.105
     2   6 C    3.991 --     3 C    1.455     6 C    1.442     7 H    0.964
                             1 C    0.105
     3   6 C    3.935 --     2 C    1.455     4 C    1.353     8 H    0.960
                             5 C    0.115
     4   6 C    3.953 --     1 C    1.439     3 C    1.353    11 C    1.016
                             6 C    0.114
     5   6 C    3.958 --     1 C    1.477     6 C    1.381     9 H    0.958
                             3 C    0.115
     6   6 C    3.934 --     2 C    1.442     5 C    1.381    10 H    0.964
                             4 C    0.114
     7   1 H    0.990 --     2 C    0.964
     8   1 H    0.987 --     3 C    0.960
     9   1 H    0.984 --     5 C    0.958
    10   1 H    0.989 --     6 C    0.964
    11   6 C    3.984 --     4 C    1.016    14 H    0.986    12 H    0.972
                            13 H    0.972
    12   1 H    0.998 --    11 C    0.972
    13   1 H    0.998 --    11 C    0.972
    14   1 H    0.996 --    11 C    0.986
 ---------------------------------------------------------------------------

molecular dipole:
                 x           y           z       tot (Debye)
 q only:        0.169      -0.182       0.000
   full:        0.067      -0.338       0.000       0.876

           -------------------------------------------------
          | TOTAL ENERGY              -18.449867198015 Eh   |
          | GRADIENT NORM               0.000230426731 Eh/α |
          | HOMO-LUMO GAP               2.566363494929 eV   |
           -------------------------------------------------

 * finished run on 2022/11/14 at 22:11:59.627
