   * xtb version 6.5.1 (579679a) compiled by 'ehlert@majestix' on 2022-07-11
          program call               : xtb [Ir+3]_1202033-19-9_SP1.xyz --gfn2 --chrg 0 --uhf 1 --alpb ch2cl2 --opt 1

   ID    Z sym.   atoms
    1    6 C      1, 3-8, 10-13, 16-21, 23-27, 29, 30
    2    8 O      2, 22, 28, 31
    3   15 P      9, 15
    4   77 Ir     14
    5    1 H      32-63

      * Solvation model:               ALPB
        Solvent                        ch2cl2
        Solvent mass                       8.4930E+01 g/mol
          :  Hamiltonian                  GFN2-xTB          :
 * total energy  :   -90.8165107 Eh     change       -0.2299458E-09 Eh
 * total energy  :   -92.2181398 Eh     change       -0.1401629E+01 Eh
 * total energy  :   -92.5019001 Eh     change       -0.2837603E+00 Eh
 * total energy  :   -92.6307178 Eh     change       -0.1288178E+00 Eh
 * total energy  :   -92.7072385 Eh     change       -0.7652070E-01 Eh
 * total energy  :   -92.7402196 Eh     change       -0.3298103E-01 Eh
 * total energy  :   -92.7629098 Eh     change       -0.2269022E-01 Eh
 * total energy  :   -92.7801397 Eh     change       -0.1722992E-01 Eh
 * total energy  :   -92.7919802 Eh     change       -0.1184053E-01 Eh
 * total energy  :   -92.8005941 Eh     change       -0.8613839E-02 Eh
 * total energy  :   -92.8328103 Eh     change       -0.3906810E-05 Eh
 * total energy  :   -92.8328143 Eh     change       -0.3907100E-05 Eh
 * total energy  :   -92.8328180 Eh     change       -0.3780630E-05 Eh
 * total energy  :   -92.8328210 Eh     change       -0.2965041E-05 Eh
 * total energy  :   -92.8328230 Eh     change       -0.2005227E-05 Eh
 * total energy  :   -92.8328246 Eh     change       -0.1588453E-05 Eh
 * total energy  :   -92.8328259 Eh     change       -0.1335131E-05 Eh
 * total energy  :   -92.8328271 Eh     change       -0.1129981E-05 Eh
 * total energy  :   -92.8328279 Eh     change       -0.8334838E-06 Eh
   *** GEOMETRY OPTIMIZATION CONVERGED AFTER 87 ITERATIONS ***

 final structure:
================
63
 xtb: 6.5.1 (579679a)
C            3.22129280595570        1.24784494498340        1.18366028879773
O            2.49705847104318        0.20015844935734        0.56824477733107
C            2.82802995575306       -0.14420816368097       -0.71744927821263
C            3.73506184577820        0.49678293261494       -1.54984650793769
C            3.84715682543498        0.08177623004974       -2.87370919796761
C            3.03793515499974       -0.90065694729777       -3.42067476206414
C            2.12220105971070       -1.53151597375529       -2.58681490898930
C            2.11607977720281       -1.22142412020199       -1.22840915132290
P            0.83290327431708       -2.13085029805422       -0.36051032290890
C            1.67036679114747       -3.68954192287100        0.29374059191269
C            2.56533659902645       -3.22530961106809        1.44200351731515
C            2.49081869985423       -4.39805233118675       -0.77894432689862
C            0.55624339673550       -4.59294014036880        0.81973164047899
Ir          -0.11455035454005       -0.37544514203841        0.62276610057523
P           -1.77494636016499       -0.64607088946602       -0.86512069305853
C           -3.40512439670677       -1.44174639272129       -0.39921131196310
C           -3.10909930571757       -2.92486403550970       -0.18984229233036
C           -3.89163758278808       -0.79741241402626        0.89835082266029
C           -4.40528872050445       -1.24935692863875       -1.53263870520959
C           -2.22645640927050        1.09717505496778       -1.14158648816181
C           -1.73211112480548        2.06580788680080       -0.24493055665184
O           -0.94270794734821        1.63760280087416        0.81428562470499
C           -0.70095720181123        2.54513933204475        1.87644273130714
C           -2.06914884273343        3.39525793986949       -0.44808645971343
C           -2.88458336355146        3.75855793336702       -1.51205370664717
C           -3.38661727347637        2.80004928532431       -2.38064817125788
C           -3.03435609201153        1.48381626932151       -2.17897148846019
O           -1.95424045674351       -2.13236652031681       -3.22489205428510
C           -1.03946262174341       -1.56703864423761       -2.53715256098522
C            0.12457574793912       -2.53064126887404       -2.04651877430343
O            1.20328767929731       -2.43955942399544       -2.98132857494722
H            4.29239174467060        1.02932046352469        1.19240534321963
H            3.04800593661378        2.20250447547373        0.67722035417130
H            2.86044094228480        1.30635268019104        2.20943936200809
H            4.33686515369750        1.32234146432350       -1.20531738343110
H            4.56009978276158        0.58301768706562       -3.51135230435419
H            3.08751533594304       -1.15137597333636       -4.46790178193064
H            3.00010340859781       -4.08093415345462        1.95570145844407
H            1.98374904250710       -2.64724909461650        2.16049645641839
H            3.37426564486272       -2.60068874968706        1.06694125401609
H            2.96025948706494       -5.28550099053780       -0.35594678178938
H            3.27535910947007       -3.74794682080657       -1.16446771403376
H            1.86529915914997       -4.71077968684103       -1.61262093381269
H           -0.11596042388994       -4.88560816743359        0.01476067320292
H           -0.02395200779331       -4.06984484604874        1.57857314905818
H            0.97552260797818       -5.49494599020158        1.26236300492695
H           -2.75530377543702       -3.35335803658666       -1.12567512230886
H           -4.00908403373215       -3.45540827073503        0.11632745779328
H           -2.34215103051667       -3.05047804973449        0.57337504676607
H           -3.11711552370825       -0.86952614772871        1.66280922777533
H           -4.13209850964525        0.25227873193016        0.73673438726324
H           -4.78654037765324       -1.30307165006373        1.25708403914975
H           -5.35911248771173       -1.71022022023853       -1.27997873143612
H           -4.01152460792200       -1.70704842593271       -2.43886683163410
H           -4.56416726417500       -0.18902002450311       -1.73471425870068
H           -0.23003952971760        1.97506995017370        2.67808317290273
H           -1.63889714706698        2.97047108832216        2.24463752328194
H           -0.02896429622504        3.35111973461990        1.56432295628443
H           -1.70366850090886        4.16935997267941        0.20898828209575
H           -3.12602992602830        4.80258973131022       -1.65803932145715
H           -4.02932334793707        3.08846641915249       -3.20067759830368
H           -0.53255006982946       -0.68143634631075       -3.01165983331274
H           -0.27155452597049       -3.54801864523631       -2.12633035307108

          :  Hamiltonian                  GFN2-xTB          :
         :: total energy             -92.832827896087 Eh    ::
         :: gradient norm              0.000119234713 Eh/a0 ::
         :: HOMO-LUMO gap              1.533789586347 eV    ::
         :: SCC energy               -94.025053103121 Eh    ::
         :: -> dispersion             -0.091811676344 Eh    ::
         :: -> Gsolv                  -0.056559134292 Eh    ::
         :: repulsion energy           1.188839197963 Eh    ::

    * Orbital Energies and Occupations

         #    Occupation            Energy/Eh            Energy/eV
      -------------------------------------------------------------
         1        2.0000           -0.7380359             -20.0830
       ...           ...                  ...                  ...
        74        2.0000           -0.4078244             -11.0975
        75        2.0000           -0.3972197             -10.8089
        76        2.0000           -0.3937306             -10.7140
        77        2.0000           -0.3885247             -10.5723
        78        2.0000           -0.3873507             -10.5403
        79        2.0000           -0.3750854             -10.2066
        80        2.0000           -0.3367526              -9.1635
        81        2.0000           -0.3310401              -9.0081
        82        2.0000           -0.3226832              -8.7807
        83        2.0000           -0.3189597              -8.6793
        84        1.9979           -0.3144821              -8.5575
        85        1.8729           -0.3104443              -8.4476
        86        1.1292           -0.3068013              -8.3485 (HOMO)
        87                         -0.2504356              -6.8147 (LUMO)
        88                         -0.2440690              -6.6415
        89                         -0.2316707              -6.3041
        90                         -0.2212543              -6.0206
        91                         -0.2101565              -5.7186
        92                         -0.1819899              -4.9522
        93                         -0.1581016              -4.3022
        94                         -0.1308523              -3.5607
        95                         -0.1213914              -3.3032
        96                         -0.1069557              -2.9104
        97                         -0.0886194              -2.4115
       ...                                ...                  ...
       171                          2.5349278              68.9789
      -------------------------------------------------------------
                  HL-Gap            0.0563657 Eh            1.5338 eV

     #   Z          covCN         q      C6AA      α(0)
     1   6 C        3.642     0.033    20.373     6.490
     2   8 O        1.748    -0.224    17.715     5.683
     3   6 C        2.912     0.136    25.031     8.204
     4   6 C        2.917    -0.081    30.026     8.986
     5   6 C        2.926    -0.033    28.817     8.803
     6   6 C        2.913    -0.069    29.721     8.940
     7   6 C        3.112     0.150    24.603     8.126
     8   6 C        2.942    -0.063    29.557     8.917
     9  15 P        4.691     0.068   157.230    22.525
    10   6 C        3.848     0.023    20.151     6.385
    11   6 C        3.876    -0.114    22.635     6.765
    12   6 C        3.806    -0.109    22.571     6.763
    13   6 C        3.863    -0.122    22.788     6.789
    14  77 Ir       2.603     0.005   303.165    31.967
    15  15 P        4.547     0.046   158.175    22.592
    16   6 C        3.849     0.035    19.959     6.354
    17   6 C        3.879    -0.123    22.807     6.790
    18   6 C        3.851    -0.117    22.708     6.778
    19   6 C        3.838    -0.118    22.717     6.781
    20   6 C        2.921    -0.012    28.314     8.726
    21   6 C        2.946     0.121    25.340     8.256
    22   8 O        2.295    -0.177    16.951     5.560
    23   6 C        3.637     0.031    20.417     6.500
    24   6 C        2.916    -0.075    29.863     8.961
    25   6 C        2.924    -0.037    28.915     8.818
    26   6 C        2.916    -0.034    28.850     8.808
    27   6 C        2.069    -0.111    34.012     9.421
    28   8 O        0.866    -0.628    26.821     6.944
    29   6 C        3.659     0.181    17.962     6.082
    30   6 C        3.744     0.070    19.472     6.295
    31   8 O        1.744    -0.267    18.424     5.796
    32   1 H        0.924     0.053     2.285     2.364
    33   1 H        0.924     0.050     2.319     2.382
    34   1 H        0.925     0.073     2.049     2.238
    35   1 H        0.926     0.049     2.326     2.385
    36   1 H        0.926     0.050     2.322     2.383
    37   1 H        0.926     0.049     2.331     2.387
    38   1 H        0.925     0.056     2.250     2.346
    39   1 H        0.924     0.058     2.222     2.331
    40   1 H        0.925     0.048     2.348     2.396
    41   1 H        0.925     0.054     2.271     2.357
    42   1 H        0.925     0.043     2.410     2.427
    43   1 H        0.925     0.048     2.342     2.393
    44   1 H        0.925     0.051     2.312     2.378
    45   1 H        0.925     0.059     2.207     2.323
    46   1 H        0.925     0.059     2.209     2.324
    47   1 H        0.925     0.057     2.234     2.337
    48   1 H        0.925     0.054     2.275     2.359
    49   1 H        0.925     0.058     2.225     2.333
    50   1 H        0.924     0.058     2.219     2.329
    51   1 H        0.925     0.042     2.418     2.432
    52   1 H        0.925     0.054     2.276     2.359
    53   1 H        0.925     0.045     2.390     2.417
    54   1 H        0.925     0.071     2.073     2.252
    55   1 H        0.924     0.051     2.313     2.378
    56   1 H        0.924     0.080     1.982     2.201
    57   1 H        0.924     0.060     2.199     2.319
    58   1 H        0.924     0.055     2.255     2.348
    59   1 H        0.926     0.040     2.443     2.444
    60   1 H        0.925     0.034     2.530     2.487
    61   1 H        0.926     0.029     2.598     2.521
    62   1 H        0.919    -0.032     3.679     3.000
    63   1 H        0.924     0.059     2.212     2.326

Wiberg/Mayer (AO) data.
largest (>0.10) Wiberg bond orders for each atom

     #   Z sym  total        # sym  WBO       # sym  WBO       # sym  WBO
 ---------------------------------------------------------------------------
     1   6 C    3.932 --    34 H    0.978    32 H    0.978    33 H    0.978
                             2 O    0.966
     2   8 O    2.344 --     3 C    1.038     1 C    0.966    14 Ir   0.144
     3   6 C    3.935 --     4 C    1.383     8 C    1.331     2 O    1.038
     4   6 C    3.978 --     5 C    1.416     3 C    1.383    35 H    0.965
     5   6 C    3.972 --     6 C    1.453     4 C    1.416    36 H    0.970
     6   6 C    3.983 --     5 C    1.453     7 C    1.352    37 H    0.967
     7   6 C    3.936 --     6 C    1.352     8 C    1.310    31 O    1.083
     8   6 C    3.972 --     3 C    1.331     7 C    1.310     9 P    1.000
     9  15 P    4.349 --    14 Ir   1.050     8 C    1.000    30 C    0.943
                            10 C    0.887
    10   6 C    3.982 --    12 C    0.992    13 C    0.990    11 C    0.990
                             9 P    0.887
    11   6 C    3.993 --    10 C    0.990    38 H    0.979    40 H    0.978
                            39 H    0.969
    12   6 C    3.994 --    10 C    0.992    42 H    0.978    43 H    0.977
                            41 H    0.977
    13   6 C    3.993 --    10 C    0.990    46 H    0.979    44 H    0.975
                            45 H    0.972
    14  77 Ir   3.281 --    15 P    1.167     9 P    1.050    22 O    0.343
                             2 O    0.144
    15  15 P    4.283 --    14 Ir   1.167    20 C    0.964    16 C    0.901
                            29 C    0.679    28 O    0.142
    16   6 C    3.981 --    19 C    0.989    18 C    0.989    17 C    0.988
                            15 P    0.901
    17   6 C    3.991 --    16 C    0.988    48 H    0.980    47 H    0.974
                            49 H    0.968
    18   6 C    3.994 --    16 C    0.989    51 H    0.980    52 H    0.979
                            50 H    0.967
    19   6 C    3.980 --    16 C    0.989    53 H    0.977    54 H    0.969
                            55 H    0.960
    20   6 C    3.954 --    27 C    1.426    21 C    1.282    15 P    0.964
    21   6 C    3.879 --    24 C    1.407    20 C    1.282    22 O    0.989
    22   8 O    2.461 --    21 C    0.989    23 C    0.955    14 Ir   0.343
    23   6 C    3.923 --    57 H    0.976    58 H    0.976    56 H    0.969
                            22 O    0.955
    24   6 C    3.978 --    25 C    1.416    21 C    1.407    59 H    0.960
    25   6 C    3.936 --    26 C    1.424    24 C    1.416    60 H    0.965
    26   6 C    3.954 --    25 C    1.424    27 C    1.415    61 H    0.964
    27   6 C    3.162 --    20 C    1.426    26 C    1.415
    28   8 O    1.719 --    29 C    1.341    15 P    0.142
    29   6 C    3.962 --    28 O    1.341    62 H    0.904    30 C    0.880
                            15 P    0.679
    30   6 C    3.911 --    31 O    0.947    63 H    0.944     9 P    0.943
                            29 C    0.880
    31   8 O    2.261 --     7 C    1.083    30 C    0.947
    32   1 H    0.997 --     1 C    0.978
    33   1 H    0.997 --     1 C    0.978
    34   1 H    0.994 --     1 C    0.978
    35   1 H    0.997 --     4 C    0.965
    36   1 H    0.997 --     5 C    0.970
    37   1 H    0.997 --     6 C    0.967
    38   1 H    0.996 --    11 C    0.979
    39   1 H    0.996 --    11 C    0.969
    40   1 H    0.998 --    11 C    0.978
    41   1 H    0.993 --    12 C    0.977
    42   1 H    0.998 --    12 C    0.978
    43   1 H    0.998 --    12 C    0.977
    44   1 H    0.997 --    13 C    0.975
    45   1 H    0.996 --    13 C    0.972
    46   1 H    0.995 --    13 C    0.979
    47   1 H    0.997 --    17 C    0.974
    48   1 H    0.996 --    17 C    0.980
    49   1 H    0.997 --    17 C    0.968
    50   1 H    0.997 --    18 C    0.967
    51   1 H    0.998 --    18 C    0.980
    52   1 H    0.994 --    18 C    0.979
    53   1 H    0.993 --    19 C    0.977
    54   1 H    0.995 --    19 C    0.969
    55   1 H    0.997 --    19 C    0.960
    56   1 H    0.993 --    23 C    0.969
    57   1 H    0.996 --    23 C    0.976
    58   1 H    0.996 --    23 C    0.976
    59   1 H    0.992 --    24 C    0.960
    60   1 H    0.988 --    25 C    0.965
    61   1 H    0.990 --    26 C    0.964
    62   1 H    0.998 --    29 C    0.904
    63   1 H    0.995 --    30 C    0.944
 ---------------------------------------------------------------------------

molecular dipole:
                 x           y           z       tot (Debye)
 q only:        2.421       1.197       4.849
   full:        3.230       2.477       5.157      16.699

           -------------------------------------------------
          | TOTAL ENERGY              -92.832827896087 Eh   |
          | GRADIENT NORM               0.000119234713 Eh/α |
          | HOMO-LUMO GAP               1.533789586347 eV   |
           -------------------------------------------------

 * finished run on 2022/10/30 at 19:08:01.014
