   * xtb version 6.5.1 (b24c23e) compiled by 'conda@728c89f4b128' on 2022-07-12
          program call               : xtb 3_5_dimethyl_4_metoxy_phenyl.xyz --gfn2 --chrg 0 --uhf 1 --alpb ch2cl2 --opt 1

   ID    Z sym.   atoms
    1    6 C      1-6, 9, 13, 18
    2    1 H      7, 8, 10-12, 14-16, 19-21
    3    8 O      17

      * Solvation model:               ALPB
        Solvent                        ch2cl2
        Solvent mass                       8.4930E+01 g/mol
          :  Hamiltonian                  GFN2-xTB          :
 * total energy  :   -28.8389244 Eh     change       -0.2766498E-10 Eh
 * total energy  :   -28.8465179 Eh     change       -0.7593525E-02 Eh
 * total energy  :   -28.8479441 Eh     change       -0.1426175E-02 Eh
 * total energy  :   -28.8480898 Eh     change       -0.1457311E-03 Eh
 * total energy  :   -28.8482069 Eh     change       -0.1170779E-03 Eh
 * total energy  :   -28.8482661 Eh     change       -0.5923355E-04 Eh
 * total energy  :   -28.8483418 Eh     change       -0.7564205E-04 Eh
 * total energy  :   -28.8484237 Eh     change       -0.8191508E-04 Eh
 * total energy  :   -28.8485082 Eh     change       -0.8454191E-04 Eh
 * total energy  :   -28.8485971 Eh     change       -0.8888158E-04 Eh
 * total energy  :   -28.8505282 Eh     change       -0.2570496E-04 Eh
 * total energy  :   -28.8505434 Eh     change       -0.1523407E-04 Eh
 * total energy  :   -28.8505494 Eh     change       -0.6029388E-05 Eh
 * total energy  :   -28.8505561 Eh     change       -0.6656875E-05 Eh
 * total energy  :   -28.8505633 Eh     change       -0.7180537E-05 Eh
 * total energy  :   -28.8505736 Eh     change       -0.1031533E-04 Eh
 * total energy  :   -28.8505793 Eh     change       -0.5739148E-05 Eh
 * total energy  :   -28.8505814 Eh     change       -0.2123590E-05 Eh
 * total energy  :   -28.8505822 Eh     change       -0.7934206E-06 Eh
   *** GEOMETRY OPTIMIZATION CONVERGED AFTER 41 ITERATIONS ***

 final structure:
================
21
 xtb: 6.5.1 (b24c23e)
C           -0.63867687773272        1.25987475777486        0.06104539549911
C           -0.03688009961787        0.03905408192895        0.07894824831727
C            1.36062460472876       -0.00386313384335        0.06333187752738
C            2.06563563887234        1.20255770924779        0.03553667760312
C            1.41185256965025        2.43690342780765       -0.00280479455459
C            0.01379314203928        2.45352573462362        0.01318126888821
H           -0.60121384367273       -0.88144873177093        0.10084926681533
H           -0.51087138872364        3.39687158618722       -0.01548258206516
C            2.17337994898196        3.72717674576223       -0.06800071332512
H            2.18869571594814        4.21039207463072        0.90975797863406
H            3.19724341177543        3.54235074315891       -0.38480289710349
H            1.70277982640241        4.40994193444516       -0.77262093987653
C            2.06741677862252       -1.32655551899188        0.06873799140534
H            3.09210194760148       -1.20495457199231       -0.27548269297926
H            2.08139449253846       -1.74750996465688        1.07514364906524
H            1.55644351394654       -2.03228491272193       -0.58309148650146
O            3.46006980297551        1.17250973023989        0.00140531739066
C            4.06291016396774        1.18299186237573        1.28116239764033
H            5.13796906047864        1.15081044893957        1.10852667396997
H            3.80790705408428        2.09266276107438        1.83568535942354
H            3.76092658713215        0.31318486577989        1.87259800422633

          :  Hamiltonian                  GFN2-xTB          :
         :: total energy             -28.850582239472 Eh    ::
         :: gradient norm              0.000661169365 Eh/a0 ::
         :: HOMO-LUMO gap              2.621011907310 eV    ::
         :: SCC energy               -29.295674778980 Eh    ::
         :: -> dispersion             -0.017324755290 Eh    ::
         :: -> Gsolv                  -0.013153364613 Eh    ::
         :: repulsion energy           0.444981940842 Eh    ::

    * Orbital Energies and Occupations

         #    Occupation            Energy/Eh            Energy/eV
      -------------------------------------------------------------
         1        2.0000           -0.7018390             -19.0980
       ...           ...                  ...                  ...
        15        2.0000           -0.4939944             -13.4423
        16        2.0000           -0.4888585             -13.3025
        17        2.0000           -0.4888171             -13.3014
        18        2.0000           -0.4741734             -12.9029
        19        2.0000           -0.4700772             -12.7915
        20        2.0000           -0.4546826             -12.3725
        21        2.0000           -0.4532837             -12.3345
        22        2.0000           -0.4489623             -12.2169
        23        2.0000           -0.4385497             -11.9335
        24        2.0000           -0.4010968             -10.9144
        25        2.0000           -0.3921896             -10.6720
        26        2.0000           -0.3918967             -10.6641
        27        1.0000           -0.3219835              -8.7616 (HOMO)
        28                         -0.2256631              -6.1406 (LUMO)
        29                         -0.2135240              -5.8103
        30                         -0.0928701              -2.5271
        31                          0.0344470               0.9374
        32                          0.0909303               2.4743
        33                          0.1179035               3.2083
        34                          0.1332444               3.6258
        35                          0.1475198               4.0142
        36                          0.1606947               4.3727
        37                          0.1667846               4.5384
        38                          0.1844533               5.0192
       ...                                ...                  ...
        51                          0.6568401              17.8735
      -------------------------------------------------------------
                  HL-Gap            0.0963204 Eh            2.6210 eV

     #   Z          covCN         q      C6AA      α(0)
     1   6 C        2.013    -0.077    33.136     9.297
     2   6 C        2.919    -0.039    28.971     8.826
     3   6 C        2.973    -0.001    28.040     8.686
     4   6 C        2.878     0.112    25.534     8.284
     5   6 C        2.973    -0.001    28.038     8.686
     6   6 C        2.919    -0.039    28.971     8.826
     7   1 H        0.926     0.048     2.342     2.393
     8   1 H        0.926     0.048     2.342     2.393
     9   6 C        3.757    -0.103    22.515     6.765
    10   1 H        0.924     0.050     2.321     2.383
    11   1 H        0.925     0.057     2.238     2.339
    12   1 H        0.925     0.049     2.330     2.387
    13   6 C        3.757    -0.103    22.511     6.765
    14   1 H        0.925     0.057     2.239     2.340
    15   1 H        0.924     0.050     2.323     2.383
    16   1 H        0.925     0.049     2.332     2.388
    17   8 O        1.702    -0.329    19.500     5.962
    18   6 C        3.652     0.045    20.118     6.442
    19   1 H        0.925     0.057     2.232     2.336
    20   1 H        0.924     0.034     2.528     2.487
    21   1 H        0.924     0.035     2.522     2.484

Wiberg/Mayer (AO) data.
largest (>0.10) Wiberg bond orders for each atom

     #   Z sym  total        # sym  WBO       # sym  WBO       # sym  WBO
 ---------------------------------------------------------------------------
     1   6 C    3.102 --     6 C    1.471     2 C    1.471
     2   6 C    3.954 --     1 C    1.471     3 C    1.355     7 H    0.957
                             5 C    0.109
     3   6 C    3.932 --     4 C    1.378     2 C    1.355    13 C    1.021
                             6 C    0.110
     4   6 C    3.935 --     5 C    1.379     3 C    1.378    17 O    0.984
     5   6 C    3.932 --     4 C    1.379     6 C    1.354     9 C    1.021
                             2 C    0.109
     6   6 C    3.954 --     1 C    1.471     5 C    1.354     8 H    0.957
                             3 C    0.110
     7   1 H    0.985 --     2 C    0.957
     8   1 H    0.985 --     6 C    0.957
     9   6 C    3.984 --     5 C    1.021    11 H    0.978    12 H    0.977
                            10 H    0.967
    10   1 H    0.997 --     9 C    0.967
    11   1 H    0.993 --     9 C    0.978
    12   1 H    0.997 --     9 C    0.977
    13   6 C    3.984 --     3 C    1.021    14 H    0.978    16 H    0.977
                            15 H    0.967
    14   1 H    0.993 --    13 C    0.978
    15   1 H    0.997 --    13 C    0.967
    16   1 H    0.997 --    13 C    0.977
    17   8 O    2.079 --     4 C    0.984    18 C    0.972
    18   6 C    3.948 --    19 H    0.980    20 H    0.979    21 H    0.979
                            17 O    0.972
    19   1 H    0.995 --    18 C    0.980
    20   1 H    0.999 --    18 C    0.979
    21   1 H    0.999 --    18 C    0.979
 ---------------------------------------------------------------------------

molecular dipole:
                 x           y           z       tot (Debye)
 q only:        0.228       0.004       0.459
   full:        0.357       0.003       0.580       1.731

           -------------------------------------------------
          | TOTAL ENERGY              -28.850582239472 Eh   |
          | GRADIENT NORM               0.000661169365 Eh/α |
          | HOMO-LUMO GAP               2.621011907310 eV   |
           -------------------------------------------------

 * finished run on 2022/11/14 at 22:11:14.242
