   * xtb version 6.5.1 (579679a) compiled by 'ehlert@majestix' on 2022-07-11
          program call               : xtb [Ir+3]_1228758-57-3_SP2.xyz --gfn2 --chrg 0 --uhf 1 --alpb ch2cl2 --opt 1

   ID    Z sym.   atoms
    1    6 C      1, 3-8, 10-13, 16-21, 23-27, 29, 30
    2    8 O      2, 22, 28, 31
    3   15 P      9, 15
    4   77 Ir     14
    5    1 H      32-63

      * Solvation model:               ALPB
        Solvent                        ch2cl2
        Solvent mass                       8.4930E+01 g/mol
          :  Hamiltonian                  GFN2-xTB          :
 * total energy  :   -92.1402110 Eh     change       -0.1315665E-07 Eh
 * total energy  :   -92.5167884 Eh     change       -0.3765774E+00 Eh
 * total energy  :   -92.6525525 Eh     change       -0.1357642E+00 Eh
 * total energy  :   -92.7477379 Eh     change       -0.9518541E-01 Eh
 * total energy  :   -92.8107419 Eh     change       -0.6300397E-01 Eh
 * total energy  :   -92.8434851 Eh     change       -0.3274317E-01 Eh
 * total energy  :   -92.8661915 Eh     change       -0.2270643E-01 Eh
 * total energy  :   -92.8819800 Eh     change       -0.1578853E-01 Eh
 * total energy  :   -92.8918488 Eh     change       -0.9868778E-02 Eh
 * total energy  :   -92.8984025 Eh     change       -0.6553708E-02 Eh
 * total energy  :   -92.9220858 Eh     change       -0.1707099E-05 Eh
 * total energy  :   -92.9220876 Eh     change       -0.1796881E-05 Eh
 * total energy  :   -92.9220895 Eh     change       -0.1849145E-05 Eh
 * total energy  :   -92.9220913 Eh     change       -0.1882307E-05 Eh
 * total energy  :   -92.9220931 Eh     change       -0.1801819E-05 Eh
 * total energy  :   -92.9220948 Eh     change       -0.1648774E-05 Eh
 * total energy  :   -92.9220962 Eh     change       -0.1406449E-05 Eh
 * total energy  :   -92.9220974 Eh     change       -0.1149625E-05 Eh
 * total energy  :   -92.9220983 Eh     change       -0.9385195E-06 Eh
   *** GEOMETRY OPTIMIZATION CONVERGED AFTER 145 ITERATIONS ***

 final structure:
================
63
 xtb: 6.5.1 (579679a)
C           -0.99338978110509        4.16276121063924       -2.50975683881068
O           -0.26949676441422        2.97853757723909       -2.25556856273089
C            1.04371584651432        3.07644170088162       -1.91861336411148
C            1.79629826064072        4.24442380344544       -1.89687412691423
C            3.13179807104811        4.19470119014934       -1.51949266033665
C            3.73735535554768        3.01111619925043       -1.13857748713248
C            2.97829192493897        1.84777575040047       -1.15340969473889
C            1.65450001236716        1.86766178240153       -1.58385081817971
P            0.83468832392035        0.26812634597571       -1.37406056175092
C            0.80451167103480       -0.46760575743266       -3.12561395114590
C            2.02276268732617       -0.09899498685909       -3.96633077570288
C           -0.46608940747265        0.08166497557824       -3.77270048612582
C            0.67266534960608       -1.98306601561165       -2.97057949313992
Ir          -0.72521923413424       -0.08131666741269        0.15314379353455
P            0.94796705861012       -0.55570286261037        1.67779490885543
C            1.56640795034623       -0.76750620077491        3.49690766696709
C            2.35171121374111        0.50201125205391        3.82376749319658
C            0.28453177742809       -0.81258265350730        4.32866290054279
C            2.40800678168417       -2.00920491494045        3.76970330848692
C            0.40580402295742       -2.25465717946594        1.32410388804093
C           -0.89570768085832       -2.75628029138404        1.36093304714321
O           -1.86976448159023       -1.80373400348566        1.59279996203120
C           -3.19431307812066       -2.23963366149015        1.80013911395231
C           -1.11372248101935       -4.09653023866735        1.09479576447332
C           -0.04106857302291       -4.89975717866366        0.71272317863488
C            1.23031157155329       -4.38043256192463        0.53319437758650
C            1.44172849911558       -3.04009988419911        0.82028187377684
O            2.63327462421381       -2.41344080930106        0.63341229922003
C            2.50996002467812       -0.99413866965785        0.70107043618117
C            2.52584132737859       -0.38902083815274       -0.72212588341807
O            3.48884746591272        0.65843282786799       -0.75906131782112
H           -0.97116910557008        4.83619354727547       -1.64794289297889
H           -0.60930888983743        4.68486676370058       -3.39200308630729
H           -2.01821580764933        3.84549446324090       -2.69642156288823
H            1.36094521493222        5.19376825586870       -2.16485692572558
H            3.70677401665091        5.10882460699995       -1.51068692147546
H            4.76854422791966        2.97931441916431       -0.82536450234455
H            2.08085659131917        0.97941869498685       -4.10251415179970
H            2.94835812160573       -0.43305005977877       -3.50203702963485
H            1.94999764434624       -0.56667001015627       -4.94789666020353
H           -0.62181040057992       -0.35934776725093       -4.75629180881005
H           -1.32703698849680       -0.14661713771121       -3.14475560766378
H           -0.40252240320806        1.16145188736286       -3.87625767214451
H           -0.11992229854976       -2.21380520190978       -2.25692644464382
H            0.42580994535511       -2.44468129869920       -3.92550908195071
H            1.59364115749291       -2.43260637333395       -2.60532122088253
H            1.75421927819385        1.38390093186808        3.59210346140919
H            2.61711565799794        0.53003393569796        4.88015062134548
H            3.26909131072606        0.55363267960474        3.23936903463378
H           -0.27367765525494       -1.72397630526722        4.11747696069016
H           -0.34937083128440        0.04241261168615        4.09136358313971
H            0.51106095322216       -0.78868314019212        5.39411900738956
H            1.85449263423548       -2.91687989011727        3.53329164130148
H            2.67958441453203       -2.04273358028135        4.82546857293416
H            3.32550974564632       -2.00652881086339        3.18579360759938
H           -3.61432822277973       -2.69694681924105        0.89779229173461
H           -3.77295937428819       -1.35247264740159        2.05689875442122
H           -3.24534301470616       -2.95422109274015        2.62723050168288
H           -2.10043714112600       -4.52911513501279        1.14825606409760
H           -0.22027940761797       -5.94433514338891        0.50774152853959
H            2.04068253197178       -4.99395092853918        0.17296651434930
H            3.41168035005888       -0.62458473282927        1.20442734589282
H            2.89740940591401       -1.18615596308479       -1.38128191226834

          :  Hamiltonian                  GFN2-xTB          :
         :: total energy             -92.922098292256 Eh    ::
         :: gradient norm              0.000053765266 Eh/a0 ::
         :: HOMO-LUMO gap              0.824767304662 eV    ::
         :: SCC energy               -94.108251357149 Eh    ::
         :: -> dispersion             -0.092138471874 Eh    ::
         :: -> Gsolv                  -0.038695686029 Eh    ::
         :: repulsion energy           1.183121114503 Eh    ::

    * Orbital Energies and Occupations

         #    Occupation            Energy/Eh            Energy/eV
      -------------------------------------------------------------
         1        2.0000           -0.7213885             -19.6300
       ...           ...                  ...                  ...
        74        2.0000           -0.4085355             -11.1168
        75        2.0000           -0.4026382             -10.9563
        76        2.0000           -0.4004318             -10.8963
        77        2.0000           -0.3915989             -10.6559
        78        2.0000           -0.3794234             -10.3246
        79        2.0000           -0.3725180             -10.1367
        80        2.0000           -0.3659729              -9.9586
        81        2.0000           -0.3644371              -9.9168
        82        2.0000           -0.2902963              -7.8994
        83        2.0000           -0.2844916              -7.7414
        84        2.0000           -0.2767316              -7.5302
        85        1.9978           -0.2723202              -7.4102
        86        1.0023           -0.2607421              -7.0952 (HOMO)
        87        0.0000           -0.2304324              -6.2704 (LUMO)
        88                         -0.2238264              -6.0906
        89                         -0.2084017              -5.6709
        90                         -0.2028689              -5.5203
        91                         -0.1749533              -4.7607
        92                         -0.1670770              -4.5464
        93                         -0.1444268              -3.9301
        94                         -0.1176825              -3.2023
        95                         -0.0886543              -2.4124
        96                         -0.0687860              -1.8718
        97                         -0.0569272              -1.5491
       ...                                ...                  ...
       171                          2.2968882              62.5015
      -------------------------------------------------------------
                  HL-Gap            0.0303096 Eh            0.8248 eV

     #   Z          covCN         q      C6AA      α(0)
     1   6 C        3.643     0.030    20.416     6.495
     2   8 O        1.706    -0.259    18.292     5.775
     3   6 C        2.903     0.139    24.969     8.193
     4   6 C        2.915    -0.084    30.102     8.997
     5   6 C        2.924    -0.035    28.877     8.812
     6   6 C        2.913    -0.073    29.819     8.954
     7   6 C        3.067     0.146    24.771     8.161
     8   6 C        2.922    -0.055    29.355     8.885
     9  15 P        4.436     0.022   159.244    22.668
    10   6 C        3.847     0.019    20.221     6.396
    11   6 C        3.792    -0.108    22.570     6.766
    12   6 C        3.873    -0.116    22.672     6.770
    13   6 C        3.849    -0.112    22.595     6.761
    14  77 Ir       2.259    -0.080   345.096    35.595
    15  15 P        4.415    -0.019   161.059    22.797
    16   6 C        3.843     0.012    20.348     6.417
    17   6 C        3.842    -0.109    22.547     6.755
    18   6 C        3.864    -0.101    22.373     6.726
    19   6 C        3.776    -0.102    22.478     6.755
    20   6 C        3.070    -0.041    28.941     8.821
    21   6 C        2.916     0.133    25.093     8.214
    22   8 O        1.850    -0.217    17.582     5.663
    23   6 C        3.640     0.038    20.281     6.477
    24   6 C        2.915    -0.085    30.123     9.000
    25   6 C        2.925    -0.044    29.083     8.844
    26   6 C        2.912    -0.072    29.807     8.953
    27   6 C        3.070     0.140    24.894     8.181
    28   8 O        1.728    -0.284    18.703     5.839
    29   6 C        3.736     0.084    19.264     6.264
    30   6 C        3.745     0.073    19.423     6.287
    31   8 O        1.721    -0.278    18.615     5.825
    32   1 H        0.924     0.050     2.325     2.385
    33   1 H        0.924     0.048     2.346     2.395
    34   1 H        0.925     0.070     2.089     2.260
    35   1 H        0.926     0.044     2.395     2.420
    36   1 H        0.926     0.044     2.396     2.421
    37   1 H        0.926     0.045     2.377     2.411
    38   1 H        0.925     0.043     2.407     2.426
    39   1 H        0.925     0.040     2.453     2.449
    40   1 H        0.925     0.047     2.362     2.404
    41   1 H        0.925     0.044     2.401     2.423
    42   1 H        0.925     0.050     2.319     2.381
    43   1 H        0.925     0.056     2.251     2.346
    44   1 H        0.924     0.048     2.350     2.397
    45   1 H        0.925     0.048     2.342     2.393
    46   1 H        0.925     0.037     2.485     2.465
    47   1 H        0.925     0.045     2.388     2.417
    48   1 H        0.925     0.042     2.419     2.432
    49   1 H        0.925     0.037     2.487     2.466
    50   1 H        0.925     0.035     2.520     2.483
    51   1 H        0.924     0.042     2.418     2.431
    52   1 H        0.925     0.037     2.484     2.465
    53   1 H        0.925     0.033     2.543     2.494
    54   1 H        0.924     0.039     2.467     2.456
    55   1 H        0.925     0.039     2.464     2.455
    56   1 H        0.924     0.045     2.388     2.417
    57   1 H        0.925     0.064     2.150     2.293
    58   1 H        0.924     0.043     2.405     2.425
    59   1 H        0.926     0.036     2.504     2.475
    60   1 H        0.926     0.037     2.483     2.464
    61   1 H        0.926     0.041     2.431     2.438
    62   1 H        0.924     0.055     2.263     2.353
    63   1 H        0.924     0.054     2.273     2.358

Wiberg/Mayer (AO) data.
largest (>0.10) Wiberg bond orders for each atom

     #   Z sym  total        # sym  WBO       # sym  WBO       # sym  WBO
 ---------------------------------------------------------------------------
     1   6 C    3.939 --    34 H    0.979    32 H    0.977    33 H    0.976
                             2 O    0.976
     2   8 O    2.262 --     3 C    1.065     1 C    0.976
     3   6 C    3.936 --     4 C    1.377     8 C    1.315     2 O    1.065
     4   6 C    3.977 --     5 C    1.420     3 C    1.377    35 H    0.965
     5   6 C    3.968 --     6 C    1.449     4 C    1.420    36 H    0.971
     6   6 C    3.977 --     5 C    1.449     7 C    1.353    37 H    0.967
     7   6 C    3.933 --     6 C    1.353     8 C    1.322    31 O    1.070
     8   6 C    3.969 --     7 C    1.322     3 C    1.315     9 P    0.994
     9  15 P    4.468 --    14 Ir   1.293     8 C    0.994    30 C    0.891
                            10 C    0.889
    10   6 C    3.977 --    11 C    0.995    13 C    0.992    12 C    0.992
                             9 P    0.889
    11   6 C    3.994 --    10 C    0.995    38 H    0.979    40 H    0.979
                            39 H    0.977
    12   6 C    3.992 --    10 C    0.992    41 H    0.980    43 H    0.976
                            42 H    0.970
    13   6 C    3.994 --    10 C    0.992    45 H    0.980    46 H    0.977
                            44 H    0.968
    14  77 Ir   2.946 --     9 P    1.293    15 P    0.875    22 O    0.183
                            20 C    0.102
    15  15 P    4.043 --    20 C    0.997    29 C    0.930    14 Ir   0.875
                            16 C    0.856
    16   6 C    3.943 --    19 C    0.997    17 C    0.996    18 C    0.995
                            15 P    0.856
    17   6 C    3.995 --    16 C    0.996    48 H    0.980    49 H    0.978
                            47 H    0.976
    18   6 C    3.996 --    16 C    0.995    52 H    0.980    50 H    0.980
                            51 H    0.975
    19   6 C    3.992 --    16 C    0.997    55 H    0.981    53 H    0.980
                            54 H    0.978
    20   6 C    3.974 --    21 C    1.309    27 C    1.302    15 P    0.997
                            14 Ir   0.102
    21   6 C    3.928 --    24 C    1.405    20 C    1.309    22 O    1.013
    22   8 O    2.355 --    21 C    1.013    23 C    0.975    14 Ir   0.183
    23   6 C    3.941 --    57 H    0.979    58 H    0.978    56 H    0.977
                            22 O    0.975
    24   6 C    3.979 --    21 C    1.405    25 C    1.397    59 H    0.966
    25   6 C    3.985 --    26 C    1.444    24 C    1.397    60 H    0.971
    26   6 C    3.983 --    25 C    1.444    27 C    1.365    61 H    0.967
    27   6 C    3.932 --    26 C    1.365    20 C    1.302    28 O    1.059
    28   8 O    2.230 --    27 C    1.059    29 C    0.954
    29   6 C    3.921 --    30 C    0.961    28 O    0.954    62 H    0.941
                            15 P    0.930
    30   6 C    3.919 --    29 C    0.961    31 O    0.956    63 H    0.934
                             9 P    0.891
    31   8 O    2.242 --     7 C    1.070    30 C    0.956
    32   1 H    0.997 --     1 C    0.977
    33   1 H    0.997 --     1 C    0.976
    34   1 H    0.995 --     1 C    0.979
    35   1 H    0.997 --     4 C    0.965
    36   1 H    0.997 --     5 C    0.971
    37   1 H    0.997 --     6 C    0.967
    38   1 H    0.998 --    11 C    0.979
    39   1 H    0.998 --    11 C    0.977
    40   1 H    0.995 --    11 C    0.979
    41   1 H    0.997 --    12 C    0.980
    42   1 H    0.997 --    12 C    0.970
    43   1 H    0.997 --    12 C    0.976
    44   1 H    0.998 --    13 C    0.968
    45   1 H    0.997 --    13 C    0.980
    46   1 H    0.998 --    13 C    0.977
    47   1 H    0.998 --    17 C    0.976
    48   1 H    0.996 --    17 C    0.980
    49   1 H    0.998 --    17 C    0.978
    50   1 H    0.999 --    18 C    0.980
    51   1 H    0.998 --    18 C    0.975
    52   1 H    0.997 --    18 C    0.980
    53   1 H    0.999 --    19 C    0.980
    54   1 H    0.994 --    19 C    0.978
    55   1 H    0.998 --    19 C    0.981
    56   1 H    0.998 --    23 C    0.977
    57   1 H    0.995 --    23 C    0.979
    58   1 H    0.998 --    23 C    0.978
    59   1 H    0.998 --    24 C    0.966
    60   1 H    0.998 --    25 C    0.971
    61   1 H    0.998 --    26 C    0.967
    62   1 H    0.996 --    29 C    0.941
    63   1 H    0.996 --    30 C    0.934
 ---------------------------------------------------------------------------

molecular dipole:
                 x           y           z       tot (Debye)
 q only:       -1.459       0.650      -0.398
   full:       -2.218       0.142      -0.008       5.650

           -------------------------------------------------
          | TOTAL ENERGY              -92.922098292256 Eh   |
          | GRADIENT NORM               0.000053765266 Eh/α |
          | HOMO-LUMO GAP               0.824767304662 eV   |
           -------------------------------------------------

 * finished run on 2022/10/30 at 22:21:13.743
