   * xtb version 6.5.1 (b24c23e) compiled by 'conda@728c89f4b128' on 2022-07-12
          program call               : xtb para_trifluoromethyl_phenyl.xyz --gfn2 --chrg 0 --uhf 1 --alpb ch2cl2 --opt 1

   ID    Z sym.   atoms
    1    6 C      1-6, 11
    2    1 H      7-10
    3    9 F      12-14

      * Solvation model:               ALPB
        Solvent                        ch2cl2
        Solvent mass                       8.4930E+01 g/mol
          :  Hamiltonian                  GFN2-xTB          :
 * total energy  :   -31.1233268 Eh     change       -0.3843326E-10 Eh
 * total energy  :   -31.1299037 Eh     change       -0.6576914E-02 Eh
 * total energy  :   -31.1309449 Eh     change       -0.1041195E-02 Eh
 * total energy  :   -31.1309896 Eh     change       -0.4470620E-04 Eh
 * total energy  :   -31.1309992 Eh     change       -0.9532518E-05 Eh
 * total energy  :   -31.1310011 Eh     change       -0.1903664E-05 Eh
 * total energy  :   -31.1310020 Eh     change       -0.9317438E-06 Eh
   *** GEOMETRY OPTIMIZATION CONVERGED AFTER 7 ITERATIONS ***

 final structure:
================
14
 xtb: 6.5.1 (b24c23e)
C            1.35823485424114        2.35198665735774        0.01127458582184
C            0.01178996636717        0.02095147802067       -0.02194182270079
C            1.40182193657093        0.00086954763790       -0.00953311972432
C            2.09809122205067        1.20657566491155        0.00547515379549
C           -0.00361727575956        2.42067856882560        0.00436856868592
C           -0.69994069551950        1.21500024111233       -0.01019689272038
H            1.93572570175116       -0.93798200015953       -0.01720894831733
H            3.17667197158878        1.21323587480929        0.01175667723529
H           -0.53702661689800        3.35813507096314        0.01105745214464
H           -1.77998828973380        1.20822151490192       -0.01801608891946
C           -0.73841662638473       -1.27905899852029       -0.00516533952510
F           -0.98314738417994       -1.71484080202000        1.25243941738734
F           -1.94050636485294       -1.20693058478512       -0.60336055685369
F           -0.07848094924137       -2.28076476305520       -0.61297875630945

          :  Hamiltonian                  GFN2-xTB          :
         :: total energy             -31.131002013732 Eh    ::
         :: gradient norm              0.000294016911 Eh/a0 ::
         :: HOMO-LUMO gap              2.470229204692 eV    ::
         :: SCC energy               -31.463056716074 Eh    ::
         :: -> dispersion             -0.011122241816 Eh    ::
         :: -> Gsolv                  -0.009275730197 Eh    ::
         :: repulsion energy           0.332029143691 Eh    ::

    * Orbital Energies and Occupations

         #    Occupation            Energy/Eh            Energy/eV
      -------------------------------------------------------------
         1        2.0000           -0.8878346             -24.1592
       ...           ...                  ...                  ...
        15        2.0000           -0.5443049             -14.8113
        16        2.0000           -0.5423173             -14.7572
        17        2.0000           -0.5421046             -14.7514
        18        2.0000           -0.5373230             -14.6213
        19        2.0000           -0.5241962             -14.2641
        20        2.0000           -0.5194393             -14.1347
        21        2.0000           -0.5114402             -13.9170
        22        2.0000           -0.5073749             -13.8064
        23        2.0000           -0.4892993             -13.3145
        24        2.0000           -0.4554307             -12.3929
        25        2.0000           -0.4384626             -11.9312
        26        2.0000           -0.4372814             -11.8990
        27        1.0000           -0.3496221              -9.5137 (HOMO)
        28                         -0.2588429              -7.0435 (LUMO)
        29                         -0.2588077              -7.0425
        30                         -0.1261163              -3.4318
        31                          0.0260547               0.7090
        32                          0.0287373               0.7820
        33                          0.0666986               1.8150
        34                          0.1130366               3.0759
        35                          0.1200313               3.2662
        36                          0.1549462               4.2163
        37                          0.1581861               4.3045
        38                          0.1910452               5.1986
       ...                                ...                  ...
        44                          0.6218413              16.9212
      -------------------------------------------------------------
                  HL-Gap            0.0907793 Eh            2.4702 eV

     #   Z          covCN         q      C6AA      α(0)
     1   6 C        2.022    -0.039    32.065     9.145
     2   6 C        2.974    -0.030    28.752     8.796
     3   6 C        2.932    -0.018    28.465     8.750
     4   6 C        2.915    -0.010    28.257     8.717
     5   6 C        2.915    -0.010    28.257     8.717
     6   6 C        2.932    -0.018    28.465     8.750
     7   1 H        0.926     0.068     2.110     2.272
     8   1 H        0.926     0.077     2.014     2.219
     9   1 H        0.926     0.077     2.014     2.219
    10   1 H        0.926     0.068     2.109     2.271
    11   6 C        3.337     0.487    17.257     6.577
    12   9 F        0.791    -0.222    11.460     3.999
    13   9 F        0.791    -0.215    11.388     3.986
    14   9 F        0.791    -0.215    11.389     3.986

Wiberg/Mayer (AO) data.
largest (>0.10) Wiberg bond orders for each atom

     #   Z sym  total        # sym  WBO       # sym  WBO       # sym  WBO
 ---------------------------------------------------------------------------
     1   6 C    3.096 --     5 C    1.467     4 C    1.467     2 C    0.102
     2   6 C    3.965 --     6 C    1.414     3 C    1.413    11 C    0.948
                             1 C    0.102
     3   6 C    3.933 --     2 C    1.413     4 C    1.392     7 H    0.959
                             5 C    0.114
     4   6 C    3.955 --     1 C    1.467     3 C    1.392     8 H    0.954
                             6 C    0.114
     5   6 C    3.955 --     1 C    1.467     6 C    1.392     9 H    0.954
                             3 C    0.114
     6   6 C    3.933 --     2 C    1.414     5 C    1.392    10 H    0.959
                             4 C    0.114
     7   1 H    0.986 --     3 C    0.959
     8   1 H    0.980 --     4 C    0.954
     9   1 H    0.980 --     5 C    0.954
    10   1 H    0.986 --     6 C    0.959
    11   6 C    3.804 --     2 C    0.948    13 F    0.944    14 F    0.944
                            12 F    0.930
    12   9 F    1.058 --    11 C    0.930
    13   9 F    1.066 --    11 C    0.944
    14   9 F    1.066 --    11 C    0.944
 ---------------------------------------------------------------------------

molecular dipole:
                 x           y           z       tot (Debye)
 q only:        0.789       1.368      -0.036
   full:        0.681       1.182      -0.037       3.470

           -------------------------------------------------
          | TOTAL ENERGY              -31.131002013732 Eh   |
          | GRADIENT NORM               0.000294016911 Eh/α |
          | HOMO-LUMO GAP               2.470229204692 eV   |
           -------------------------------------------------

 * finished run on 2022/11/14 at 22:12:39.616
